MODEL 1
REMARK VINA RESULT:   -10.225      0.000      0.000
REMARK INTER + INTRA:         -13.324
REMARK INTER:                 -12.317
REMARK INTRA:                  -1.006
REMARK UNBOUND:                -1.006
REMARK SMILES Cc1n[nH]c2ccc(-c3ccc4nc(N)nc(Nc5cc6c(cc5F)OCCO6)c4c3)cc12
REMARK SMILES IDX 9 1 31 2 30 3 12 4 13 5 14 6 16 7 17 8 11 9 10 10 8 11 6 12
REMARK SMILES IDX 7 13 5 14 33 15 4 16 32 17 2 18 3 19 1 21 18 22 19 24 20 25
REMARK SMILES IDX 24 26 21 27 23 28 22 29 29 30 26 31 28 32 27 33 25 34 15 35
REMARK H PARENT 4 20 18 23 15 36 15 37
ROOT
ATOM      1  C   UNL     1     -20.250  -4.947 -28.161  1.00  0.00    -0.017 A 
ATOM      2  C   UNL     1     -20.075  -5.039 -29.549  1.00  0.00     0.023 A 
ATOM      3  C   UNL     1     -21.069  -4.590 -30.461  1.00  0.00     0.044 A 
ATOM      4  C   UNL     1     -22.249  -4.026 -29.969  1.00  0.00     0.078 A 
ATOM      5  N   UNL     1     -23.218  -3.567 -30.765  1.00  0.00    -0.213 NA
ATOM      6  C   UNL     1     -23.018  -3.637 -32.077  1.00  0.00     0.222 A 
ATOM      7  N   UNL     1     -21.950  -4.176 -32.660  1.00  0.00    -0.195 NA
ATOM      8  C   UNL     1     -20.979  -4.654 -31.863  1.00  0.00     0.144 A 
ATOM      9  C   UNL     1     -22.419  -3.939 -28.595  1.00  0.00     0.030 A 
ATOM     10  C   UNL     1     -21.445  -4.391 -27.697  1.00  0.00     0.011 A 
ENDROOT
BRANCH   1  11
ATOM     11  C   UNL     1     -19.213  -5.415 -27.227  1.00  0.00    -0.018 A 
ATOM     12  C   UNL     1     -17.565  -4.921 -25.470  1.00  0.00     0.029 A 
ATOM     13  C   UNL     1     -18.559  -4.511 -26.370  1.00  0.00     0.011 A 
ATOM     14  C   UNL     1     -17.245  -6.279 -25.456  1.00  0.00     0.065 A 
ATOM     15  C   UNL     1     -17.860  -7.211 -26.281  1.00  0.00     0.023 A 
ATOM     16  N   UNL     1     -16.342  -6.995 -24.716  1.00  0.00    -0.278 N 
ATOM     17  C   UNL     1     -18.856  -6.777 -27.178  1.00  0.00     0.021 A 
ATOM     18  C   UNL     1     -17.247  -8.449 -25.951  1.00  0.00     0.067 A 
ATOM     19  N   UNL     1     -16.320  -8.310 -24.994  1.00  0.00    -0.180 NA
ATOM     20  H   UNL     1     -15.710  -6.645 -24.006  1.00  0.00     0.190 HD
ATOM     21  C   UNL     1     -17.524  -9.783 -26.537  1.00  0.00     0.069 C 
ENDBRANCH   1  11
BRANCH   8  22
ATOM     22  N   UNL     1     -19.830  -5.247 -32.451  1.00  0.00    -0.337 N 
ATOM     23  H   UNL     1     -19.259  -5.681 -31.728  1.00  0.00     0.168 HD
BRANCH  22  24
ATOM     24  C   UNL     1     -19.751  -5.996 -33.650  1.00  0.00     0.080 A 
ATOM     25  C   UNL     1     -20.115  -7.344 -33.736  1.00  0.00     0.079 A 
ATOM     26  C   UNL     1     -19.389  -5.338 -34.839  1.00  0.00     0.150 A 
ATOM     27  C   UNL     1     -20.068  -8.015 -34.961  1.00  0.00     0.163 A 
ATOM     28  C   UNL     1     -19.350  -5.991 -36.067  1.00  0.00     0.092 A 
ATOM     29  C   UNL     1     -19.702  -7.334 -36.128  1.00  0.00     0.164 A 
ATOM     30  O   UNL     1     -20.410  -9.344 -34.947  1.00  0.00    -0.486 OA
ATOM     31  O   UNL     1     -19.668  -7.925 -37.365  1.00  0.00    -0.486 OA
ATOM     32  C   UNL     1     -19.997 -10.003 -36.149  1.00  0.00     0.271 C 
ATOM     33  C   UNL     1     -20.370  -9.175 -37.367  1.00  0.00     0.271 C 
ATOM     34  F   UNL     1     -19.064  -4.035 -34.790  1.00  0.00    -0.205 F 
ENDBRANCH  22  24
ENDBRANCH   8  22
BRANCH   6  35
ATOM     35  N   UNL     1     -24.018  -3.164 -32.901  1.00  0.00    -0.368 N 
ATOM     36  H   UNL     1     -24.767  -3.840 -32.952  1.00  0.00     0.159 HD
ATOM     37  H   UNL     1     -24.257  -2.217 -32.642  1.00  0.00     0.159 HD
ENDBRANCH   6  35
TORSDOF 4
ENDMDL
MODEL 2
REMARK VINA RESULT:    -9.975      1.100      1.621
REMARK INTER + INTRA:         -13.023
REMARK INTER:                 -11.768
REMARK INTRA:                  -1.254
REMARK UNBOUND:                -1.006
REMARK SMILES Cc1n[nH]c2ccc(-c3ccc4nc(N)nc(Nc5cc6c(cc5F)OCCO6)c4c3)cc12
REMARK SMILES IDX 9 1 31 2 30 3 12 4 13 5 14 6 16 7 17 8 11 9 10 10 8 11 6 12
REMARK SMILES IDX 7 13 5 14 33 15 4 16 32 17 2 18 3 19 1 21 18 22 19 24 20 25
REMARK SMILES IDX 24 26 21 27 23 28 22 29 29 30 26 31 28 32 27 33 25 34 15 35
REMARK H PARENT 4 20 18 23 15 36 15 37
ROOT
ATOM      1  C   UNL     1     -20.211  -4.922 -28.184  1.00  0.00    -0.017 A 
ATOM      2  C   UNL     1     -20.100  -5.109 -29.569  1.00  0.00     0.023 A 
ATOM      3  C   UNL     1     -21.081  -4.616 -30.473  1.00  0.00     0.044 A 
ATOM      4  C   UNL     1     -22.181  -3.912 -29.977  1.00  0.00     0.078 A 
ATOM      5  N   UNL     1     -23.132  -3.405 -30.765  1.00  0.00    -0.213 NA
ATOM      6  C   UNL     1     -22.990  -3.568 -32.077  1.00  0.00     0.222 A 
ATOM      7  N   UNL     1     -22.003  -4.241 -32.662  1.00  0.00    -0.195 NA
ATOM      8  C   UNL     1     -21.052  -4.767 -31.871  1.00  0.00     0.144 A 
ATOM      9  C   UNL     1     -22.288  -3.732 -28.605  1.00  0.00     0.030 A 
ATOM     10  C   UNL     1     -21.328  -4.226 -27.715  1.00  0.00     0.011 A 
ENDROOT
BRANCH   1  11
ATOM     11  C   UNL     1     -19.188  -5.437 -27.259  1.00  0.00    -0.018 A 
ATOM     12  C   UNL     1     -17.549  -5.028 -25.472  1.00  0.00     0.029 A 
ATOM     13  C   UNL     1     -18.530  -4.573 -26.365  1.00  0.00     0.011 A 
ATOM     14  C   UNL     1     -17.247  -6.390 -25.504  1.00  0.00     0.065 A 
ATOM     15  C   UNL     1     -17.867  -7.284 -26.366  1.00  0.00     0.023 A 
ATOM     16  N   UNL     1     -16.360  -7.143 -24.783  1.00  0.00    -0.278 N 
ATOM     17  C   UNL     1     -18.850  -6.804 -27.255  1.00  0.00     0.021 A 
ATOM     18  C   UNL     1     -17.273  -8.541 -26.076  1.00  0.00     0.067 A 
ATOM     19  N   UNL     1     -16.353  -8.448 -25.108  1.00  0.00    -0.180 NA
ATOM     20  H   UNL     1     -15.729  -6.828 -24.056  1.00  0.00     0.190 HD
ATOM     21  C   UNL     1     -17.563  -9.849 -26.711  1.00  0.00     0.069 C 
ENDBRANCH   1  11
BRANCH   8  22
ATOM     22  N   UNL     1     -19.990  -5.502 -32.460  1.00  0.00    -0.337 N 
ATOM     23  H   UNL     1     -19.219  -5.582 -31.800  1.00  0.00     0.168 HD
BRANCH  22  24
ATOM     24  C   UNL     1     -20.072  -6.669 -33.258  1.00  0.00     0.080 A 
ATOM     25  C   UNL     1     -20.042  -6.644 -34.657  1.00  0.00     0.079 A 
ATOM     26  C   UNL     1     -20.081  -7.925 -32.625  1.00  0.00     0.150 A 
ATOM     27  C   UNL     1     -20.071  -7.834 -35.389  1.00  0.00     0.163 A 
ATOM     28  C   UNL     1     -20.097  -9.118 -33.342  1.00  0.00     0.092 A 
ATOM     29  C   UNL     1     -20.081  -9.070 -34.731  1.00  0.00     0.164 A 
ATOM     30  O   UNL     1     -20.071  -7.715 -36.756  1.00  0.00    -0.486 OA
ATOM     31  O   UNL     1     -20.075 -10.272 -35.390  1.00  0.00    -0.486 OA
ATOM     32  C   UNL     1     -20.451  -8.942 -37.387  1.00  0.00     0.271 C 
ATOM     33  C   UNL     1     -19.709 -10.114 -36.766  1.00  0.00     0.271 C 
ATOM     34  F   UNL     1     -20.079  -7.979 -31.283  1.00  0.00    -0.205 F 
ENDBRANCH  22  24
ENDBRANCH   8  22
BRANCH   6  35
ATOM     35  N   UNL     1     -23.971  -3.046 -32.894  1.00  0.00    -0.368 N 
ATOM     36  H   UNL     1     -24.016  -2.043 -32.774  1.00  0.00     0.159 HD
ATOM     37  H   UNL     1     -23.863  -3.401 -33.833  1.00  0.00     0.159 HD
ENDBRANCH   6  35
TORSDOF 4
ENDMDL
MODEL 3
REMARK VINA RESULT:    -9.246      3.532      8.281
REMARK INTER + INTRA:         -12.144
REMARK INTER:                 -11.164
REMARK INTRA:                  -0.980
REMARK UNBOUND:                -1.006
REMARK SMILES Cc1n[nH]c2ccc(-c3ccc4nc(N)nc(Nc5cc6c(cc5F)OCCO6)c4c3)cc12
REMARK SMILES IDX 9 1 31 2 30 3 12 4 13 5 14 6 16 7 17 8 11 9 10 10 8 11 6 12
REMARK SMILES IDX 7 13 5 14 33 15 4 16 32 17 2 18 3 19 1 21 18 22 19 24 20 25
REMARK SMILES IDX 24 26 21 27 23 28 22 29 29 30 26 31 28 32 27 33 25 34 15 35
REMARK H PARENT 4 20 18 23 15 36 15 37
ROOT
ATOM      1  C   UNL     1     -21.292  -4.803 -32.386  1.00  0.00    -0.017 A 
ATOM      2  C   UNL     1     -20.716  -5.030 -31.128  1.00  0.00     0.023 A 
ATOM      3  C   UNL     1     -21.383  -4.675 -29.923  1.00  0.00     0.044 A 
ATOM      4  C   UNL     1     -22.654  -4.098 -29.985  1.00  0.00     0.078 A 
ATOM      5  N   UNL     1     -23.347  -3.756 -28.897  1.00  0.00    -0.213 NA
ATOM      6  C   UNL     1     -22.794  -4.008 -27.714  1.00  0.00     0.222 A 
ATOM      7  N   UNL     1     -21.583  -4.527 -27.532  1.00  0.00    -0.195 NA
ATOM      8  C   UNL     1     -20.874  -4.859 -28.625  1.00  0.00     0.144 A 
ATOM      9  C   UNL     1     -23.219  -3.873 -31.232  1.00  0.00     0.030 A 
ATOM     10  C   UNL     1     -22.558  -4.213 -32.419  1.00  0.00     0.011 A 
ENDROOT
BRANCH   1  11
ATOM     11  C   UNL     1     -20.591  -5.176 -33.626  1.00  0.00    -0.018 A 
ATOM     12  C   UNL     1     -19.044  -4.586 -35.443  1.00  0.00     0.029 A 
ATOM     13  C   UNL     1     -19.726  -4.267 -34.261  1.00  0.00     0.011 A 
ATOM     14  C   UNL     1     -19.257  -5.859 -35.973  1.00  0.00     0.065 A 
ATOM     15  C   UNL     1     -20.100  -6.793 -35.385  1.00  0.00     0.023 A 
ATOM     16  N   UNL     1     -18.759  -6.478 -37.089  1.00  0.00    -0.278 N 
ATOM     17  C   UNL     1     -20.776  -6.450 -34.197  1.00  0.00     0.021 A 
ATOM     18  C   UNL     1     -20.031  -7.930 -36.233  1.00  0.00     0.067 A 
ATOM     19  N   UNL     1     -19.211  -7.731 -37.273  1.00  0.00    -0.180 NA
ATOM     20  H   UNL     1     -18.110  -6.098 -37.767  1.00  0.00     0.190 HD
ATOM     21  C   UNL     1     -20.742  -9.222 -36.078  1.00  0.00     0.069 C 
ENDBRANCH   1  11
BRANCH   8  22
ATOM     22  N   UNL     1     -19.573  -5.403 -28.467  1.00  0.00    -0.337 N 
ATOM     23  H   UNL     1     -18.876  -4.715 -28.746  1.00  0.00     0.168 HD
BRANCH  22  24
ATOM     24  C   UNL     1     -19.079  -6.193 -27.401  1.00  0.00     0.080 A 
ATOM     25  C   UNL     1     -19.300  -7.572 -27.304  1.00  0.00     0.079 A 
ATOM     26  C   UNL     1     -18.239  -5.596 -26.445  1.00  0.00     0.150 A 
ATOM     27  C   UNL     1     -18.740  -8.309 -26.257  1.00  0.00     0.163 A 
ATOM     28  C   UNL     1     -17.665  -6.320 -25.405  1.00  0.00     0.092 A 
ATOM     29  C   UNL     1     -17.910  -7.686 -25.318  1.00  0.00     0.164 A 
ATOM     30  O   UNL     1     -19.036  -9.648 -26.221  1.00  0.00    -0.486 OA
ATOM     31  O   UNL     1     -17.302  -8.357 -24.288  1.00  0.00    -0.486 OA
ATOM     32  C   UNL     1     -18.714 -10.220 -24.949  1.00  0.00     0.271 C 
ATOM     33  C   UNL     1     -17.334  -9.774 -24.497  1.00  0.00     0.271 C 
ATOM     34  F   UNL     1     -17.985  -4.279 -26.532  1.00  0.00    -0.205 F 
ENDBRANCH  22  24
ENDBRANCH   8  22
BRANCH   6  35
ATOM     35  N   UNL     1     -23.509  -3.655 -26.588  1.00  0.00    -0.368 N 
ATOM     36  H   UNL     1     -24.369  -3.200 -26.859  1.00  0.00     0.159 HD
ATOM     37  H   UNL     1     -23.573  -4.444 -25.961  1.00  0.00     0.159 HD
ENDBRANCH   6  35
TORSDOF 4
ENDMDL
MODEL 4
REMARK VINA RESULT:    -9.088      4.989      8.026
REMARK INTER + INTRA:         -11.954
REMARK INTER:                 -10.845
REMARK INTRA:                  -1.109
REMARK UNBOUND:                -1.006
REMARK SMILES Cc1n[nH]c2ccc(-c3ccc4nc(N)nc(Nc5cc6c(cc5F)OCCO6)c4c3)cc12
REMARK SMILES IDX 9 1 31 2 30 3 12 4 13 5 14 6 16 7 17 8 11 9 10 10 8 11 6 12
REMARK SMILES IDX 7 13 5 14 33 15 4 16 32 17 2 18 3 19 1 21 18 22 19 24 20 25
REMARK SMILES IDX 24 26 21 27 23 28 22 29 29 30 26 31 28 32 27 33 25 34 15 35
REMARK H PARENT 4 20 18 23 15 36 15 37
ROOT
ATOM      1  C   UNL     1     -23.800  -4.603 -26.755  1.00  0.00    -0.017 A 
ATOM      2  C   UNL     1     -22.410  -4.513 -26.925  1.00  0.00     0.023 A 
ATOM      3  C   UNL     1     -21.798  -4.680 -28.197  1.00  0.00     0.044 A 
ATOM      4  C   UNL     1     -22.597  -4.925 -29.318  1.00  0.00     0.078 A 
ATOM      5  N   UNL     1     -22.094  -5.075 -30.546  1.00  0.00    -0.213 NA
ATOM      6  C   UNL     1     -20.777  -4.956 -30.687  1.00  0.00     0.222 A 
ATOM      7  N   UNL     1     -19.917  -4.750 -29.694  1.00  0.00    -0.195 NA
ATOM      8  C   UNL     1     -20.417  -4.615 -28.453  1.00  0.00     0.144 A 
ATOM      9  C   UNL     1     -23.970  -5.016 -29.145  1.00  0.00     0.030 A 
ATOM     10  C   UNL     1     -24.572  -4.863 -27.891  1.00  0.00     0.011 A 
ENDROOT
BRANCH   1  11
ATOM     11  C   UNL     1     -24.421  -4.428 -25.433  1.00  0.00    -0.018 A 
ATOM     12  C   UNL     1     -24.349  -3.472 -23.168  1.00  0.00     0.029 A 
ATOM     13  C   UNL     1     -23.788  -3.659 -24.439  1.00  0.00     0.011 A 
ATOM     14  C   UNL     1     -25.578  -4.086 -22.922  1.00  0.00     0.065 A 
ATOM     15  C   UNL     1     -26.244  -4.854 -23.868  1.00  0.00     0.023 A 
ATOM     16  N   UNL     1     -26.381  -4.105 -21.814  1.00  0.00    -0.278 N 
ATOM     17  C   UNL     1     -25.661  -5.028 -25.139  1.00  0.00     0.021 A 
ATOM     18  C   UNL     1     -27.431  -5.283 -23.217  1.00  0.00     0.067 A 
ATOM     19  N   UNL     1     -27.508  -4.823 -21.962  1.00  0.00    -0.180 NA
ATOM     20  H   UNL     1     -26.216  -3.651 -20.924  1.00  0.00     0.190 HD
ATOM     21  C   UNL     1     -28.509  -6.139 -23.769  1.00  0.00     0.069 C 
ENDBRANCH   1  11
BRANCH   8  22
ATOM     22  N   UNL     1     -19.526  -4.407 -27.367  1.00  0.00    -0.337 N 
ATOM     23  H   UNL     1     -19.932  -3.741 -26.712  1.00  0.00     0.168 HD
BRANCH  22  24
ATOM     24  C   UNL     1     -18.758  -5.371 -26.670  1.00  0.00     0.080 A 
ATOM     25  C   UNL     1     -18.824  -6.742 -26.941  1.00  0.00     0.079 A 
ATOM     26  C   UNL     1     -17.806  -4.933 -25.733  1.00  0.00     0.150 A 
ATOM     27  C   UNL     1     -18.000  -7.641 -26.258  1.00  0.00     0.163 A 
ATOM     28  C   UNL     1     -16.971  -5.815 -25.055  1.00  0.00     0.092 A 
ATOM     29  C   UNL     1     -17.063  -7.175 -25.328  1.00  0.00     0.164 A 
ATOM     30  O   UNL     1     -18.154  -8.970 -26.562  1.00  0.00    -0.486 OA
ATOM     31  O   UNL     1     -16.202  -8.000 -24.650  1.00  0.00    -0.486 OA
ATOM     32  C   UNL     1     -17.533  -9.806 -25.580  1.00  0.00     0.271 C 
ATOM     33  C   UNL     1     -16.139  -9.299 -25.251  1.00  0.00     0.271 C 
ATOM     34  F   UNL     1     -17.701  -3.618 -25.476  1.00  0.00    -0.205 F 
ENDBRANCH  22  24
ENDBRANCH   8  22
BRANCH   6  35
ATOM     35  N   UNL     1     -20.256  -5.110 -31.955  1.00  0.00    -0.368 N 
ATOM     36  H   UNL     1     -20.309  -6.081 -32.230  1.00  0.00     0.159 HD
ATOM     37  H   UNL     1     -20.658  -4.424 -32.578  1.00  0.00     0.159 HD
ENDBRANCH   6  35
TORSDOF 4
ENDMDL
MODEL 5
REMARK VINA RESULT:    -8.889      7.303     10.492
REMARK INTER + INTRA:         -11.714
REMARK INTER:                 -10.490
REMARK INTRA:                  -1.224
REMARK UNBOUND:                -1.006
REMARK SMILES Cc1n[nH]c2ccc(-c3ccc4nc(N)nc(Nc5cc6c(cc5F)OCCO6)c4c3)cc12
REMARK SMILES IDX 9 1 31 2 30 3 12 4 13 5 14 6 16 7 17 8 11 9 10 10 8 11 6 12
REMARK SMILES IDX 7 13 5 14 33 15 4 16 32 17 2 18 3 19 1 21 18 22 19 24 20 25
REMARK SMILES IDX 24 26 21 27 23 28 22 29 29 30 26 31 28 32 27 33 25 34 15 35
REMARK H PARENT 4 20 18 23 15 36 15 37
ROOT
ATOM      1  C   UNL     1     -23.225  -5.345 -26.589  1.00  0.00    -0.017 A 
ATOM      2  C   UNL     1     -24.388  -5.658 -25.870  1.00  0.00     0.023 A 
ATOM      3  C   UNL     1     -25.614  -4.973 -26.091  1.00  0.00     0.044 A 
ATOM      4  C   UNL     1     -25.675  -3.968 -27.061  1.00  0.00     0.078 A 
ATOM      5  N   UNL     1     -26.795  -3.295 -27.337  1.00  0.00    -0.213 NA
ATOM      6  C   UNL     1     -27.891  -3.630 -26.663  1.00  0.00     0.222 A 
ATOM      7  N   UNL     1     -27.948  -4.547 -25.702  1.00  0.00    -0.195 NA
ATOM      8  C   UNL     1     -26.820  -5.217 -25.410  1.00  0.00     0.144 A 
ATOM      9  C   UNL     1     -24.522  -3.660 -27.768  1.00  0.00     0.030 A 
ATOM     10  C   UNL     1     -23.312  -4.327 -27.543  1.00  0.00     0.011 A 
ENDROOT
BRANCH   1  11
ATOM     11  C   UNL     1     -21.963  -6.063 -26.350  1.00  0.00    -0.018 A 
ATOM     12  C   UNL     1     -20.736  -8.185 -26.158  1.00  0.00     0.029 A 
ATOM     13  C   UNL     1     -21.920  -7.468 -26.382  1.00  0.00     0.011 A 
ATOM     14  C   UNL     1     -19.585  -7.440 -25.898  1.00  0.00     0.065 A 
ATOM     15  C   UNL     1     -19.574  -6.052 -25.856  1.00  0.00     0.023 A 
ATOM     16  N   UNL     1     -18.294  -7.817 -25.642  1.00  0.00    -0.278 N 
ATOM     17  C   UNL     1     -20.775  -5.353 -26.084  1.00  0.00     0.021 A 
ATOM     18  C   UNL     1     -18.227  -5.708 -25.565  1.00  0.00     0.067 A 
ATOM     19  N   UNL     1     -17.450  -6.791 -25.434  1.00  0.00    -0.180 NA
ATOM     20  H   UNL     1     -17.924  -8.759 -25.592  1.00  0.00     0.190 HD
ATOM     21  C   UNL     1     -17.653  -4.351 -25.401  1.00  0.00     0.069 C 
ENDBRANCH   1  11
BRANCH   8  22
ATOM     22  N   UNL     1     -26.842  -6.194 -24.380  1.00  0.00    -0.337 N 
ATOM     23  H   UNL     1     -26.332  -7.023 -24.682  1.00  0.00     0.168 HD
BRANCH  22  24
ATOM     24  C   UNL     1     -26.677  -6.000 -22.988  1.00  0.00     0.080 A 
ATOM     25  C   UNL     1     -25.424  -5.946 -22.366  1.00  0.00     0.079 A 
ATOM     26  C   UNL     1     -27.812  -5.744 -22.198  1.00  0.00     0.150 A 
ATOM     27  C   UNL     1     -25.323  -5.695 -20.995  1.00  0.00     0.163 A 
ATOM     28  C   UNL     1     -27.724  -5.481 -20.835  1.00  0.00     0.092 A 
ATOM     29  C   UNL     1     -26.471  -5.447 -20.234  1.00  0.00     0.164 A 
ATOM     30  O   UNL     1     -24.058  -5.693 -20.462  1.00  0.00    -0.486 OA
ATOM     31  O   UNL     1     -26.438  -5.161 -18.893  1.00  0.00    -0.486 OA
ATOM     32  C   UNL     1     -24.093  -5.779 -19.033  1.00  0.00     0.271 C 
ATOM     33  C   UNL     1     -25.116  -4.810 -18.465  1.00  0.00     0.271 C 
ATOM     34  F   UNL     1     -29.025  -5.759 -22.776  1.00  0.00    -0.205 F 
ENDBRANCH  22  24
ENDBRANCH   8  22
BRANCH   6  35
ATOM     35  N   UNL     1     -29.049  -2.935 -26.946  1.00  0.00    -0.368 N 
ATOM     36  H   UNL     1     -29.270  -3.025 -27.928  1.00  0.00     0.159 HD
ATOM     37  H   UNL     1     -29.768  -3.179 -26.280  1.00  0.00     0.159 HD
ENDBRANCH   6  35
TORSDOF 4
ENDMDL
MODEL 6
REMARK VINA RESULT:    -8.847      3.455      8.066
REMARK INTER + INTRA:         -11.664
REMARK INTER:                 -10.469
REMARK INTRA:                  -1.195
REMARK UNBOUND:                -1.006
REMARK SMILES Cc1n[nH]c2ccc(-c3ccc4nc(N)nc(Nc5cc6c(cc5F)OCCO6)c4c3)cc12
REMARK SMILES IDX 9 1 31 2 30 3 12 4 13 5 14 6 16 7 17 8 11 9 10 10 8 11 6 12
REMARK SMILES IDX 7 13 5 14 33 15 4 16 32 17 2 18 3 19 1 21 18 22 19 24 20 25
REMARK SMILES IDX 24 26 21 27 23 28 22 29 29 30 26 31 28 32 27 33 25 34 15 35
REMARK H PARENT 4 20 18 23 15 36 15 37
ROOT
ATOM      1  C   UNL     1     -21.247  -4.837 -32.323  1.00  0.00    -0.017 A 
ATOM      2  C   UNL     1     -20.625  -5.041 -31.082  1.00  0.00     0.023 A 
ATOM      3  C   UNL     1     -21.276  -4.728 -29.857  1.00  0.00     0.044 A 
ATOM      4  C   UNL     1     -22.576  -4.217 -29.880  1.00  0.00     0.078 A 
ATOM      5  N   UNL     1     -23.256  -3.917 -28.771  1.00  0.00    -0.213 NA
ATOM      6  C   UNL     1     -22.657  -4.147 -27.606  1.00  0.00     0.222 A 
ATOM      7  N   UNL     1     -21.417  -4.603 -27.460  1.00  0.00    -0.195 NA
ATOM      8  C   UNL     1     -20.723  -4.892 -28.575  1.00  0.00     0.144 A 
ATOM      9  C   UNL     1     -23.187  -4.014 -31.109  1.00  0.00     0.030 A 
ATOM     10  C   UNL     1     -22.542  -4.312 -32.316  1.00  0.00     0.011 A 
ENDROOT
BRANCH   1  11
ATOM     11  C   UNL     1     -20.563  -5.165 -33.584  1.00  0.00    -0.018 A 
ATOM     12  C   UNL     1     -19.066  -4.500 -35.418  1.00  0.00     0.029 A 
ATOM     13  C   UNL     1     -19.732  -4.223 -34.216  1.00  0.00     0.011 A 
ATOM     14  C   UNL     1     -19.261  -5.766 -35.972  1.00  0.00     0.065 A 
ATOM     15  C   UNL     1     -20.070  -6.732 -35.388  1.00  0.00     0.023 A 
ATOM     16  N   UNL     1     -18.772  -6.348 -37.110  1.00  0.00    -0.278 N 
ATOM     17  C   UNL     1     -20.730  -6.431 -34.180  1.00  0.00     0.021 A 
ATOM     18  C   UNL     1     -19.992  -7.848 -36.263  1.00  0.00     0.067 A 
ATOM     19  N   UNL     1     -19.197  -7.607 -37.313  1.00  0.00    -0.180 NA
ATOM     20  H   UNL     1     -18.144  -5.939 -37.792  1.00  0.00     0.190 HD
ATOM     21  C   UNL     1     -20.670  -9.160 -36.122  1.00  0.00     0.069 C 
ENDBRANCH   1  11
BRANCH   8  22
ATOM     22  N   UNL     1     -19.391  -5.369 -28.457  1.00  0.00    -0.337 N 
ATOM     23  H   UNL     1     -18.774  -4.604 -28.190  1.00  0.00     0.168 HD
BRANCH  22  24
ATOM     24  C   UNL     1     -18.945  -6.581 -27.877  1.00  0.00     0.080 A 
ATOM     25  C   UNL     1     -18.561  -6.691 -26.535  1.00  0.00     0.079 A 
ATOM     26  C   UNL     1     -18.985  -7.758 -28.646  1.00  0.00     0.150 A 
ATOM     27  C   UNL     1     -18.183  -7.927 -26.005  1.00  0.00     0.163 A 
ATOM     28  C   UNL     1     -18.623  -8.997 -28.126  1.00  0.00     0.092 A 
ATOM     29  C   UNL     1     -18.230  -9.082 -26.795  1.00  0.00     0.164 A 
ATOM     30  O   UNL     1     -17.789  -7.937 -24.690  1.00  0.00    -0.486 OA
ATOM     31  O   UNL     1     -17.906 -10.329 -26.327  1.00  0.00    -0.486 OA
ATOM     32  C   UNL     1     -17.104  -9.151 -24.359  1.00  0.00     0.271 C 
ATOM     33  C   UNL     1     -17.861 -10.354 -24.894  1.00  0.00     0.271 C 
ATOM     34  F   UNL     1     -19.379  -7.685 -29.928  1.00  0.00    -0.205 F 
ENDBRANCH  22  24
ENDBRANCH   8  22
BRANCH   6  35
ATOM     35  N   UNL     1     -23.357  -3.838 -26.458  1.00  0.00    -0.368 N 
ATOM     36  H   UNL     1     -23.653  -2.872 -26.488  1.00  0.00     0.159 HD
ATOM     37  H   UNL     1     -24.064  -4.539 -26.287  1.00  0.00     0.159 HD
ENDBRANCH   6  35
TORSDOF 4
ENDMDL
MODEL 7
REMARK VINA RESULT:    -8.799      1.272      1.675
REMARK INTER + INTRA:         -11.606
REMARK INTER:                 -10.436
REMARK INTRA:                  -1.169
REMARK UNBOUND:                -1.006
REMARK SMILES Cc1n[nH]c2ccc(-c3ccc4nc(N)nc(Nc5cc6c(cc5F)OCCO6)c4c3)cc12
REMARK SMILES IDX 9 1 31 2 30 3 12 4 13 5 14 6 16 7 17 8 11 9 10 10 8 11 6 12
REMARK SMILES IDX 7 13 5 14 33 15 4 16 32 17 2 18 3 19 1 21 18 22 19 24 20 25
REMARK SMILES IDX 24 26 21 27 23 28 22 29 29 30 26 31 28 32 27 33 25 34 15 35
REMARK H PARENT 4 20 18 23 15 36 15 37
ROOT
ATOM      1  C   UNL     1     -20.428  -6.532 -28.899  1.00  0.00    -0.017 A 
ATOM      2  C   UNL     1     -20.220  -6.083 -30.212  1.00  0.00     0.023 A 
ATOM      3  C   UNL     1     -21.213  -5.352 -30.920  1.00  0.00     0.044 A 
ATOM      4  C   UNL     1     -22.426  -5.055 -30.294  1.00  0.00     0.078 A 
ATOM      5  N   UNL     1     -23.396  -4.358 -30.890  1.00  0.00    -0.213 NA
ATOM      6  C   UNL     1     -23.165  -3.918 -32.123  1.00  0.00     0.222 A 
ATOM      7  N   UNL     1     -22.063  -4.160 -32.827  1.00  0.00    -0.195 NA
ATOM      8  C   UNL     1     -21.090  -4.875 -32.237  1.00  0.00     0.144 A 
ATOM      9  C   UNL     1     -22.628  -5.503 -28.997  1.00  0.00     0.030 A 
ATOM     10  C   UNL     1     -21.656  -6.232 -28.303  1.00  0.00     0.011 A 
ENDROOT
BRANCH   1  11
ATOM     11  C   UNL     1     -19.392  -7.287 -28.177  1.00  0.00    -0.018 A 
ATOM     12  C   UNL     1     -17.865  -7.487 -26.260  1.00  0.00     0.029 A 
ATOM     13  C   UNL     1     -18.854  -6.796 -26.973  1.00  0.00     0.011 A 
ATOM     14  C   UNL     1     -17.428  -8.700 -26.796  1.00  0.00     0.065 A 
ATOM     15  C   UNL     1     -17.926  -9.228 -27.979  1.00  0.00     0.023 A 
ATOM     16  N   UNL     1     -16.497  -9.604 -26.363  1.00  0.00    -0.278 N 
ATOM     17  C   UNL     1     -18.920  -8.516 -28.680  1.00  0.00     0.021 A 
ATOM     18  C   UNL     1     -17.221 -10.448 -28.158  1.00  0.00     0.067 A 
ATOM     19  N   UNL     1     -16.348 -10.672 -27.167  1.00  0.00    -0.180 NA
ATOM     20  H   UNL     1     -15.926  -9.552 -25.527  1.00  0.00     0.190 HD
ATOM     21  C   UNL     1     -17.357 -11.419 -29.270  1.00  0.00     0.069 C 
ENDBRANCH   1  11
BRANCH   8  22
ATOM     22  N   UNL     1     -19.905  -5.163 -32.965  1.00  0.00    -0.337 N 
ATOM     23  H   UNL     1     -19.133  -5.313 -32.318  1.00  0.00     0.168 HD
BRANCH  22  24
ATOM     24  C   UNL     1     -19.758  -5.994 -34.101  1.00  0.00     0.080 A 
ATOM     25  C   UNL     1     -20.155  -7.336 -34.124  1.00  0.00     0.079 A 
ATOM     26  C   UNL     1     -19.290  -5.429 -35.301  1.00  0.00     0.150 A 
ATOM     27  C   UNL     1     -20.037  -8.091 -35.294  1.00  0.00     0.163 A 
ATOM     28  C   UNL     1     -19.179  -6.166 -36.476  1.00  0.00     0.092 A 
ATOM     29  C   UNL     1     -19.565  -7.502 -36.473  1.00  0.00     0.164 A 
ATOM     30  O   UNL     1     -20.418  -9.407 -35.218  1.00  0.00    -0.486 OA
ATOM     31  O   UNL     1     -19.457  -8.177 -37.661  1.00  0.00    -0.486 OA
ATOM     32  C   UNL     1     -19.936 -10.157 -36.339  1.00  0.00     0.271 C 
ATOM     33  C   UNL     1     -20.193  -9.406 -37.634  1.00  0.00     0.271 C 
ATOM     34  F   UNL     1     -18.931  -4.134 -35.315  1.00  0.00    -0.205 F 
ENDBRANCH  22  24
ENDBRANCH   8  22
BRANCH   6  35
ATOM     35  N   UNL     1     -24.167  -3.197 -32.740  1.00  0.00    -0.368 N 
ATOM     36  H   UNL     1     -25.008  -3.235 -32.182  1.00  0.00     0.159 HD
ATOM     37  H   UNL     1     -23.821  -2.286 -33.006  1.00  0.00     0.159 HD
ENDBRANCH   6  35
TORSDOF 4
ENDMDL
MODEL 8
REMARK VINA RESULT:    -8.703      3.241      7.413
REMARK INTER + INTRA:         -11.490
REMARK INTER:                 -10.211
REMARK INTRA:                  -1.280
REMARK UNBOUND:                -1.006
REMARK SMILES Cc1n[nH]c2ccc(-c3ccc4nc(N)nc(Nc5cc6c(cc5F)OCCO6)c4c3)cc12
REMARK SMILES IDX 9 1 31 2 30 3 12 4 13 5 14 6 16 7 17 8 11 9 10 10 8 11 6 12
REMARK SMILES IDX 7 13 5 14 33 15 4 16 32 17 2 18 3 19 1 21 18 22 19 24 20 25
REMARK SMILES IDX 24 26 21 27 23 28 22 29 29 30 26 31 28 32 27 33 25 34 15 35
REMARK H PARENT 4 20 18 23 15 36 15 37
ROOT
ATOM      1  C   UNL     1     -19.688  -5.215 -27.891  1.00  0.00    -0.017 A 
ATOM      2  C   UNL     1     -19.281  -6.557 -27.921  1.00  0.00     0.023 A 
ATOM      3  C   UNL     1     -18.371  -7.086 -26.965  1.00  0.00     0.044 A 
ATOM      4  C   UNL     1     -17.876  -6.257 -25.954  1.00  0.00     0.078 A 
ATOM      5  N   UNL     1     -17.033  -6.688 -25.013  1.00  0.00    -0.213 NA
ATOM      6  C   UNL     1     -16.685  -7.970 -25.043  1.00  0.00     0.222 A 
ATOM      7  N   UNL     1     -17.069  -8.845 -25.969  1.00  0.00    -0.195 NA
ATOM      8  C   UNL     1     -17.905  -8.412 -26.928  1.00  0.00     0.144 A 
ATOM      9  C   UNL     1     -18.279  -4.930 -25.930  1.00  0.00     0.030 A 
ATOM     10  C   UNL     1     -19.166  -4.406 -26.878  1.00  0.00     0.011 A 
ENDROOT
BRANCH   1  11
ATOM     11  C   UNL     1     -20.631  -4.680 -28.886  1.00  0.00    -0.018 A 
ATOM     12  C   UNL     1     -22.572  -3.270 -29.422  1.00  0.00     0.029 A 
ATOM     13  C   UNL     1     -21.656  -3.798 -28.502  1.00  0.00     0.011 A 
ATOM     14  C   UNL     1     -22.427  -3.660 -30.754  1.00  0.00     0.065 A 
ATOM     15  C   UNL     1     -21.433  -4.527 -31.186  1.00  0.00     0.023 A 
ATOM     16  N   UNL     1     -23.136  -3.338 -31.880  1.00  0.00    -0.278 N 
ATOM     17  C   UNL     1     -20.523  -5.045 -30.243  1.00  0.00     0.021 A 
ATOM     18  C   UNL     1     -21.643  -4.655 -32.585  1.00  0.00     0.067 A 
ATOM     19  N   UNL     1     -22.686  -3.926 -33.003  1.00  0.00    -0.180 NA
ATOM     20  H   UNL     1     -23.939  -2.724 -31.950  1.00  0.00     0.190 HD
ATOM     21  C   UNL     1     -20.866  -5.471 -33.548  1.00  0.00     0.069 C 
ENDBRANCH   1  11
BRANCH   8  22
ATOM     22  N   UNL     1     -18.326  -9.316 -27.939  1.00  0.00    -0.337 N 
ATOM     23  H   UNL     1     -19.224  -9.017 -28.315  1.00  0.00     0.168 HD
BRANCH  22  24
ATOM     24  C   UNL     1     -17.544  -9.913 -28.958  1.00  0.00     0.080 A 
ATOM     25  C   UNL     1     -16.719 -11.021 -28.738  1.00  0.00     0.079 A 
ATOM     26  C   UNL     1     -17.675  -9.445 -30.277  1.00  0.00     0.150 A 
ATOM     27  C   UNL     1     -16.014 -11.602 -29.796  1.00  0.00     0.163 A 
ATOM     28  C   UNL     1     -16.988 -10.021 -31.341  1.00  0.00     0.092 A 
ATOM     29  C   UNL     1     -16.162 -11.112 -31.099  1.00  0.00     0.164 A 
ATOM     30  O   UNL     1     -15.202 -12.664 -29.484  1.00  0.00    -0.486 OA
ATOM     31  O   UNL     1     -15.526 -11.657 -32.184  1.00  0.00    -0.486 OA
ATOM     32  C   UNL     1     -14.282 -12.947 -30.544  1.00  0.00     0.271 C 
ATOM     33  C   UNL     1     -14.998 -12.955 -31.884  1.00  0.00     0.271 C 
ATOM     34  F   UNL     1     -18.485  -8.401 -30.521  1.00  0.00    -0.205 F 
ENDBRANCH  22  24
ENDBRANCH   8  22
BRANCH   6  35
ATOM     35  N   UNL     1     -15.814  -8.418 -24.071  1.00  0.00    -0.368 N 
ATOM     36  H   UNL     1     -14.865  -8.362 -24.412  1.00  0.00     0.159 HD
ATOM     37  H   UNL     1     -16.023  -7.970 -23.190  1.00  0.00     0.159 HD
ENDBRANCH   6  35
TORSDOF 4
ENDMDL
MODEL 9
REMARK VINA RESULT:    -8.687      3.440      8.140
REMARK INTER + INTRA:         -11.471
REMARK INTER:                 -10.270
REMARK INTRA:                  -1.201
REMARK UNBOUND:                -1.006
REMARK SMILES Cc1n[nH]c2ccc(-c3ccc4nc(N)nc(Nc5cc6c(cc5F)OCCO6)c4c3)cc12
REMARK SMILES IDX 9 1 31 2 30 3 12 4 13 5 14 6 16 7 17 8 11 9 10 10 8 11 6 12
REMARK SMILES IDX 7 13 5 14 33 15 4 16 32 17 2 18 3 19 1 21 18 22 19 24 20 25
REMARK SMILES IDX 24 26 21 27 23 28 22 29 29 30 26 31 28 32 27 33 25 34 15 35
REMARK H PARENT 4 20 18 23 15 36 15 37
ROOT
ATOM      1  C   UNL     1     -19.170  -8.693 -31.125  1.00  0.00    -0.017 A 
ATOM      2  C   UNL     1     -19.955  -8.023 -30.174  1.00  0.00     0.023 A 
ATOM      3  C   UNL     1     -19.504  -7.816 -28.842  1.00  0.00     0.044 A 
ATOM      4  C   UNL     1     -18.239  -8.275 -28.464  1.00  0.00     0.078 A 
ATOM      5  N   UNL     1     -17.742  -8.101 -27.237  1.00  0.00    -0.213 NA
ATOM      6  C   UNL     1     -18.492  -7.437 -26.362  1.00  0.00     0.222 A 
ATOM      7  N   UNL     1     -19.717  -6.978 -26.598  1.00  0.00    -0.195 NA
ATOM      8  C   UNL     1     -20.228  -7.164 -27.827  1.00  0.00     0.144 A 
ATOM      9  C   UNL     1     -17.468  -8.939 -29.407  1.00  0.00     0.030 A 
ATOM     10  C   UNL     1     -17.916  -9.153 -30.715  1.00  0.00     0.011 A 
ENDROOT
BRANCH   1  11
ATOM     11  C   UNL     1     -19.649  -8.901 -32.501  1.00  0.00    -0.018 A 
ATOM     12  C   UNL     1     -20.862 -10.278 -34.136  1.00  0.00     0.029 A 
ATOM     13  C   UNL     1     -20.392 -10.047 -32.836  1.00  0.00     0.011 A 
ATOM     14  C   UNL     1     -20.561  -9.315 -35.100  1.00  0.00     0.065 A 
ATOM     15  C   UNL     1     -19.831  -8.167 -34.820  1.00  0.00     0.023 A 
ATOM     16  N   UNL     1     -20.860  -9.234 -36.433  1.00  0.00    -0.278 N 
ATOM     17  C   UNL     1     -19.368  -7.955 -33.506  1.00  0.00     0.021 A 
ATOM     18  C   UNL     1     -19.753  -7.475 -36.059  1.00  0.00     0.067 A 
ATOM     19  N   UNL     1     -20.384  -8.133 -37.040  1.00  0.00    -0.180 NA
ATOM     20  H   UNL     1     -21.385  -9.899 -36.989  1.00  0.00     0.190 HD
ATOM     21  C   UNL     1     -19.079  -6.184 -36.335  1.00  0.00     0.069 C 
ENDBRANCH   1  11
BRANCH   8  22
ATOM     22  N   UNL     1     -21.539  -6.699 -28.110  1.00  0.00    -0.337 N 
ATOM     23  H   UNL     1     -22.140  -6.852 -27.303  1.00  0.00     0.168 HD
BRANCH  22  24
ATOM     24  C   UNL     1     -21.919  -5.512 -28.784  1.00  0.00     0.080 A 
ATOM     25  C   UNL     1     -22.473  -5.506 -30.069  1.00  0.00     0.079 A 
ATOM     26  C   UNL     1     -21.836  -4.287 -28.099  1.00  0.00     0.150 A 
ATOM     27  C   UNL     1     -22.880  -4.307 -30.660  1.00  0.00     0.163 A 
ATOM     28  C   UNL     1     -22.249  -3.088 -28.671  1.00  0.00     0.092 A 
ATOM     29  C   UNL     1     -22.784  -3.101 -29.954  1.00  0.00     0.164 A 
ATOM     30  O   UNL     1     -23.381  -4.389 -31.934  1.00  0.00    -0.486 OA
ATOM     31  O   UNL     1     -23.196  -1.897 -30.463  1.00  0.00    -0.486 OA
ATOM     32  C   UNL     1     -23.434  -3.102 -32.559  1.00  0.00     0.271 C 
ATOM     33  C   UNL     1     -24.032  -2.073 -31.614  1.00  0.00     0.271 C 
ATOM     34  F   UNL     1     -21.337  -4.269 -26.852  1.00  0.00    -0.205 F 
ENDBRANCH  22  24
ENDBRANCH   8  22
BRANCH   6  35
ATOM     35  N   UNL     1     -17.980  -7.255 -25.094  1.00  0.00    -0.368 N 
ATOM     36  H   UNL     1     -18.234  -6.339 -24.752  1.00  0.00     0.159 HD
ATOM     37  H   UNL     1     -18.207  -8.051 -24.515  1.00  0.00     0.159 HD
ENDBRANCH   6  35
TORSDOF 4
ENDMDL
MODEL 10
REMARK VINA RESULT:    -8.626      2.507      6.820
REMARK INTER + INTRA:         -11.397
REMARK INTER:                 -10.210
REMARK INTRA:                  -1.187
REMARK UNBOUND:                -1.006
REMARK SMILES Cc1n[nH]c2ccc(-c3ccc4nc(N)nc(Nc5cc6c(cc5F)OCCO6)c4c3)cc12
REMARK SMILES IDX 9 1 31 2 30 3 12 4 13 5 14 6 16 7 17 8 11 9 10 10 8 11 6 12
REMARK SMILES IDX 7 13 5 14 33 15 4 16 32 17 2 18 3 19 1 21 18 22 19 24 20 25
REMARK SMILES IDX 24 26 21 27 23 28 22 29 29 30 26 31 28 32 27 33 25 34 15 35
REMARK H PARENT 4 20 18 23 15 36 15 37
ROOT
ATOM      1  C   UNL     1     -19.897  -4.978 -27.892  1.00  0.00    -0.017 A 
ATOM      2  C   UNL     1     -19.600  -6.348 -27.839  1.00  0.00     0.023 A 
ATOM      3  C   UNL     1     -18.659  -6.876 -26.913  1.00  0.00     0.044 A 
ATOM      4  C   UNL     1     -18.018  -6.016 -26.017  1.00  0.00     0.078 A 
ATOM      5  N   UNL     1     -17.138  -6.442 -25.109  1.00  0.00    -0.213 NA
ATOM      6  C   UNL     1     -16.894  -7.748 -25.058  1.00  0.00     0.222 A 
ATOM      7  N   UNL     1     -17.421  -8.657 -25.874  1.00  0.00    -0.195 NA
ATOM      8  C   UNL     1     -18.297  -8.230 -26.801  1.00  0.00     0.144 A 
ATOM      9  C   UNL     1     -18.313  -4.661 -26.074  1.00  0.00     0.030 A 
ATOM     10  C   UNL     1     -19.232  -4.140 -26.993  1.00  0.00     0.011 A 
ENDROOT
BRANCH   1  11
ATOM     11  C   UNL     1     -20.873  -4.444 -28.854  1.00  0.00    -0.018 A 
ATOM     12  C   UNL     1     -22.871  -3.086 -29.313  1.00  0.00     0.029 A 
ATOM     13  C   UNL     1     -21.921  -3.611 -28.425  1.00  0.00     0.011 A 
ATOM     14  C   UNL     1     -22.734  -3.426 -30.660  1.00  0.00     0.065 A 
ATOM     15  C   UNL     1     -21.718  -4.245 -31.135  1.00  0.00     0.023 A 
ATOM     16  N   UNL     1     -23.471  -3.093 -31.764  1.00  0.00    -0.278 N 
ATOM     17  C   UNL     1     -20.775  -4.761 -30.224  1.00  0.00     0.021 A 
ATOM     18  C   UNL     1     -21.947  -4.334 -32.534  1.00  0.00     0.067 A 
ATOM     19  N   UNL     1     -23.020  -3.628 -32.912  1.00  0.00    -0.180 NA
ATOM     20  H   UNL     1     -24.296  -2.505 -31.801  1.00  0.00     0.190 HD
ATOM     21  C   UNL     1     -21.157  -5.090 -33.536  1.00  0.00     0.069 C 
ENDBRANCH   1  11
BRANCH   8  22
ATOM     22  N   UNL     1     -18.869  -9.171 -27.697  1.00  0.00    -0.337 N 
ATOM     23  H   UNL     1     -19.834  -9.357 -27.431  1.00  0.00     0.168 HD
BRANCH  22  24
ATOM     24  C   UNL     1     -18.730  -9.232 -29.105  1.00  0.00     0.080 A 
ATOM     25  C   UNL     1     -19.716  -8.783 -29.991  1.00  0.00     0.079 A 
ATOM     26  C   UNL     1     -17.508  -9.666 -29.649  1.00  0.00     0.150 A 
ATOM     27  C   UNL     1     -19.498  -8.817 -31.371  1.00  0.00     0.163 A 
ATOM     28  C   UNL     1     -17.275  -9.694 -31.020  1.00  0.00     0.092 A 
ATOM     29  C   UNL     1     -18.272  -9.257 -31.884  1.00  0.00     0.164 A 
ATOM     30  O   UNL     1     -20.531  -8.389 -32.167  1.00  0.00    -0.486 OA
ATOM     31  O   UNL     1     -17.983  -9.283 -33.224  1.00  0.00    -0.486 OA
ATOM     32  C   UNL     1     -20.342  -8.789 -33.528  1.00  0.00     0.271 C 
ATOM     33  C   UNL     1     -18.919  -8.502 -33.977  1.00  0.00     0.271 C 
ATOM     34  F   UNL     1     -16.534 -10.074 -28.819  1.00  0.00    -0.205 F 
ENDBRANCH  22  24
ENDBRANCH   8  22
BRANCH   6  35
ATOM     35  N   UNL     1     -15.985  -8.191 -24.120  1.00  0.00    -0.368 N 
ATOM     36  H   UNL     1     -16.474  -8.598 -23.336  1.00  0.00     0.159 HD
ATOM     37  H   UNL     1     -15.272  -8.748 -24.568  1.00  0.00     0.159 HD
ENDBRANCH   6  35
TORSDOF 4
ENDMDL
MODEL 11
REMARK VINA RESULT:    -8.551      4.309      7.111
REMARK INTER + INTRA:         -11.307
REMARK INTER:                  -9.860
REMARK INTRA:                  -1.446
REMARK UNBOUND:                -1.006
REMARK SMILES Cc1n[nH]c2ccc(-c3ccc4nc(N)nc(Nc5cc6c(cc5F)OCCO6)c4c3)cc12
REMARK SMILES IDX 9 1 31 2 30 3 12 4 13 5 14 6 16 7 17 8 11 9 10 10 8 11 6 12
REMARK SMILES IDX 7 13 5 14 33 15 4 16 32 17 2 18 3 19 1 21 18 22 19 24 20 25
REMARK SMILES IDX 24 26 21 27 23 28 22 29 29 30 26 31 28 32 27 33 25 34 15 35
REMARK H PARENT 4 20 18 23 15 36 15 37
ROOT
ATOM      1  C   UNL     1     -20.579  -5.981 -30.519  1.00  0.00    -0.017 A 
ATOM      2  C   UNL     1     -21.359  -5.072 -29.791  1.00  0.00     0.023 A 
ATOM      3  C   UNL     1     -22.201  -4.123 -30.433  1.00  0.00     0.044 A 
ATOM      4  C   UNL     1     -22.270  -4.098 -31.829  1.00  0.00     0.078 A 
ATOM      5  N   UNL     1     -23.050  -3.248 -32.500  1.00  0.00    -0.213 NA
ATOM      6  C   UNL     1     -23.804  -2.416 -31.787  1.00  0.00     0.222 A 
ATOM      7  N   UNL     1     -23.802  -2.329 -30.460  1.00  0.00    -0.195 NA
ATOM      8  C   UNL     1     -23.006  -3.173 -29.780  1.00  0.00     0.144 A 
ATOM      9  C   UNL     1     -21.494  -4.998 -32.546  1.00  0.00     0.030 A 
ATOM     10  C   UNL     1     -20.657  -5.925 -31.914  1.00  0.00     0.011 A 
ENDROOT
BRANCH   1  11
ATOM     11  C   UNL     1     -19.712  -6.959 -29.842  1.00  0.00    -0.018 A 
ATOM     12  C   UNL     1     -18.506  -9.101 -29.875  1.00  0.00     0.029 A 
ATOM     13  C   UNL     1     -19.328  -8.147 -30.490  1.00  0.00     0.011 A 
ATOM     14  C   UNL     1     -18.076  -8.824 -28.576  1.00  0.00     0.065 A 
ATOM     15  C   UNL     1     -18.426  -7.667 -27.893  1.00  0.00     0.023 A 
ATOM     16  N   UNL     1     -17.283  -9.526 -27.710  1.00  0.00    -0.278 N 
ATOM     17  C   UNL     1     -19.253  -6.722 -28.531  1.00  0.00     0.021 A 
ATOM     18  C   UNL     1     -17.789  -7.784 -26.629  1.00  0.00     0.067 A 
ATOM     19  N   UNL     1     -17.092  -8.923 -26.523  1.00  0.00    -0.180 NA
ATOM     20  H   UNL     1     -16.842 -10.425 -27.866  1.00  0.00     0.190 HD
ATOM     21  C   UNL     1     -17.831  -6.825 -25.499  1.00  0.00     0.069 C 
ENDBRANCH   1  11
BRANCH   8  22
ATOM     22  N   UNL     1     -22.970  -3.099 -28.363  1.00  0.00    -0.337 N 
ATOM     23  H   UNL     1     -22.913  -2.126 -28.070  1.00  0.00     0.168 HD
BRANCH  22  24
ATOM     24  C   UNL     1     -23.729  -3.846 -27.430  1.00  0.00     0.080 A 
ATOM     25  C   UNL     1     -25.129  -3.874 -27.430  1.00  0.00     0.079 A 
ATOM     26  C   UNL     1     -23.057  -4.683 -26.522  1.00  0.00     0.150 A 
ATOM     27  C   UNL     1     -25.823  -4.674 -26.518  1.00  0.00     0.163 A 
ATOM     28  C   UNL     1     -23.736  -5.494 -25.617  1.00  0.00     0.092 A 
ATOM     29  C   UNL     1     -25.126  -5.496 -25.625  1.00  0.00     0.164 A 
ATOM     30  O   UNL     1     -27.193  -4.615 -26.567  1.00  0.00    -0.486 OA
ATOM     31  O   UNL     1     -25.746  -6.329 -24.729  1.00  0.00    -0.486 OA
ATOM     32  C   UNL     1     -27.782  -5.182 -25.392  1.00  0.00     0.271 C 
ATOM     33  C   UNL     1     -27.130  -6.512 -25.056  1.00  0.00     0.271 C 
ATOM     34  F   UNL     1     -21.714  -4.699 -26.521  1.00  0.00    -0.205 F 
ENDBRANCH  22  24
ENDBRANCH   8  22
BRANCH   6  35
ATOM     35  N   UNL     1     -24.611  -1.537 -32.479  1.00  0.00    -0.368 N 
ATOM     36  H   UNL     1     -25.327  -2.049 -32.974  1.00  0.00     0.159 HD
ATOM     37  H   UNL     1     -24.908  -0.789 -31.868  1.00  0.00     0.159 HD
ENDBRANCH   6  35
TORSDOF 4
ENDMDL
MODEL 12
REMARK VINA RESULT:    -8.423      3.095      5.671
REMARK INTER + INTRA:         -11.153
REMARK INTER:                  -9.879
REMARK INTRA:                  -1.274
REMARK UNBOUND:                -1.006
REMARK SMILES Cc1n[nH]c2ccc(-c3ccc4nc(N)nc(Nc5cc6c(cc5F)OCCO6)c4c3)cc12
REMARK SMILES IDX 9 1 31 2 30 3 12 4 13 5 14 6 16 7 17 8 11 9 10 10 8 11 6 12
REMARK SMILES IDX 7 13 5 14 33 15 4 16 32 17 2 18 3 19 1 21 18 22 19 24 20 25
REMARK SMILES IDX 24 26 21 27 23 28 22 29 29 30 26 31 28 32 27 33 25 34 15 35
REMARK H PARENT 4 20 18 23 15 36 15 37
ROOT
ATOM      1  C   UNL     1     -18.530  -9.415 -30.195  1.00  0.00    -0.017 A 
ATOM      2  C   UNL     1     -18.855  -8.465 -31.175  1.00  0.00     0.023 A 
ATOM      3  C   UNL     1     -19.180  -8.843 -32.506  1.00  0.00     0.044 A 
ATOM      4  C   UNL     1     -19.194 -10.197 -32.853  1.00  0.00     0.078 A 
ATOM      5  N   UNL     1     -19.507 -10.627 -34.078  1.00  0.00    -0.213 NA
ATOM      6  C   UNL     1     -19.840  -9.711 -34.982  1.00  0.00     0.222 A 
ATOM      7  N   UNL     1     -19.837  -8.397 -34.776  1.00  0.00    -0.195 NA
ATOM      8  C   UNL     1     -19.507  -7.958 -33.549  1.00  0.00     0.144 A 
ATOM      9  C   UNL     1     -18.870 -11.133 -31.882  1.00  0.00     0.030 A 
ATOM     10  C   UNL     1     -18.539 -10.760 -30.573  1.00  0.00     0.011 A 
ENDROOT
BRANCH   1  11
ATOM     11  C   UNL     1     -18.196  -9.010 -28.820  1.00  0.00    -0.018 A 
ATOM     12  C   UNL     1     -17.169  -9.534 -26.648  1.00  0.00     0.029 A 
ATOM     13  C   UNL     1     -17.503  -9.885 -27.964  1.00  0.00     0.011 A 
ATOM     14  C   UNL     1     -17.556  -8.266 -26.214  1.00  0.00     0.065 A 
ATOM     15  C   UNL     1     -18.242  -7.366 -27.019  1.00  0.00     0.023 A 
ATOM     16  N   UNL     1     -17.392  -7.623 -25.016  1.00  0.00    -0.278 N 
ATOM     17  C   UNL     1     -18.566  -7.740 -28.338  1.00  0.00     0.021 A 
ATOM     18  C   UNL     1     -18.436  -6.221 -26.200  1.00  0.00     0.067 A 
ATOM     19  N   UNL     1     -17.916  -6.385 -24.977  1.00  0.00    -0.180 NA
ATOM     20  H   UNL     1     -16.934  -7.975 -24.184  1.00  0.00     0.190 HD
ATOM     21  C   UNL     1     -19.121  -4.956 -26.559  1.00  0.00     0.069 C 
ENDBRANCH   1  11
BRANCH   8  22
ATOM     22  N   UNL     1     -19.480  -6.561 -33.298  1.00  0.00    -0.337 N 
ATOM     23  H   UNL     1     -19.043  -6.079 -34.081  1.00  0.00     0.168 HD
BRANCH  22  24
ATOM     24  C   UNL     1     -20.499  -5.754 -32.736  1.00  0.00     0.080 A 
ATOM     25  C   UNL     1     -20.696  -5.620 -31.357  1.00  0.00     0.079 A 
ATOM     26  C   UNL     1     -21.290  -4.966 -33.590  1.00  0.00     0.150 A 
ATOM     27  C   UNL     1     -21.683  -4.765 -30.861  1.00  0.00     0.163 A 
ATOM     28  C   UNL     1     -22.268  -4.101 -33.109  1.00  0.00     0.092 A 
ATOM     29  C   UNL     1     -22.457  -3.994 -31.736  1.00  0.00     0.164 A 
ATOM     30  O   UNL     1     -21.829  -4.720 -29.497  1.00  0.00    -0.486 OA
ATOM     31  O   UNL     1     -23.418  -3.111 -31.313  1.00  0.00    -0.486 OA
ATOM     32  C   UNL     1     -23.066  -4.104 -29.123  1.00  0.00     0.271 C 
ATOM     33  C   UNL     1     -23.287  -2.826 -29.914  1.00  0.00     0.271 C 
ATOM     34  F   UNL     1     -21.101  -5.052 -34.917  1.00  0.00    -0.205 F 
ENDBRANCH  22  24
ENDBRANCH   8  22
BRANCH   6  35
ATOM     35  N   UNL     1     -20.164 -10.153 -36.248  1.00  0.00    -0.368 N 
ATOM     36  H   UNL     1     -19.699  -9.580 -36.938  1.00  0.00     0.159 HD
ATOM     37  H   UNL     1     -20.036 -11.153 -36.306  1.00  0.00     0.159 HD
ENDBRANCH   6  35
TORSDOF 4
ENDMDL
MODEL 13
REMARK VINA RESULT:    -8.400      6.822      9.894
REMARK INTER + INTRA:         -11.126
REMARK INTER:                 -10.128
REMARK INTRA:                  -0.998
REMARK UNBOUND:                -1.006
REMARK SMILES Cc1n[nH]c2ccc(-c3ccc4nc(N)nc(Nc5cc6c(cc5F)OCCO6)c4c3)cc12
REMARK SMILES IDX 9 1 31 2 30 3 12 4 13 5 14 6 16 7 17 8 11 9 10 10 8 11 6 12
REMARK SMILES IDX 7 13 5 14 33 15 4 16 32 17 2 18 3 19 1 21 18 22 19 24 20 25
REMARK SMILES IDX 24 26 21 27 23 28 22 29 29 30 26 31 28 32 27 33 25 34 15 35
REMARK H PARENT 4 20 18 23 15 36 15 37
ROOT
ATOM      1  C   UNL     1     -21.503  -4.741 -26.587  1.00  0.00    -0.017 A 
ATOM      2  C   UNL     1     -22.538  -4.648 -25.644  1.00  0.00     0.023 A 
ATOM      3  C   UNL     1     -23.853  -4.251 -26.010  1.00  0.00     0.044 A 
ATOM      4  C   UNL     1     -24.135  -3.958 -27.347  1.00  0.00     0.078 A 
ATOM      5  N   UNL     1     -25.350  -3.597 -27.768  1.00  0.00    -0.213 NA
ATOM      6  C   UNL     1     -26.321  -3.544 -26.862  1.00  0.00     0.222 A 
ATOM      7  N   UNL     1     -26.166  -3.774 -25.561  1.00  0.00    -0.195 NA
ATOM      8  C   UNL     1     -24.942  -4.123 -25.130  1.00  0.00     0.144 A 
ATOM      9  C   UNL     1     -23.109  -4.050 -28.276  1.00  0.00     0.030 A 
ATOM     10  C   UNL     1     -21.812  -4.430 -27.914  1.00  0.00     0.011 A 
ENDROOT
BRANCH   1  11
ATOM     11  C   UNL     1     -20.147  -5.154 -26.194  1.00  0.00    -0.018 A 
ATOM     12  C   UNL     1     -17.787  -4.581 -25.807  1.00  0.00     0.029 A 
ATOM     13  C   UNL     1     -19.092  -4.223 -26.173  1.00  0.00     0.011 A 
ATOM     14  C   UNL     1     -17.570  -5.915 -25.457  1.00  0.00     0.065 A 
ATOM     15  C   UNL     1     -18.577  -6.871 -25.461  1.00  0.00     0.023 A 
ATOM     16  N   UNL     1     -16.443  -6.581 -25.060  1.00  0.00    -0.278 N 
ATOM     17  C   UNL     1     -19.881  -6.489 -25.833  1.00  0.00     0.021 A 
ATOM     18  C   UNL     1     -17.938  -8.072 -25.051  1.00  0.00     0.067 A 
ATOM     19  N   UNL     1     -16.634  -7.888 -24.808  1.00  0.00    -0.180 NA
ATOM     20  H   UNL     1     -15.511  -6.202 -24.942  1.00  0.00     0.190 HD
ATOM     21  C   UNL     1     -18.548  -9.414 -24.887  1.00  0.00     0.069 C 
ENDBRANCH   1  11
BRANCH   8  22
ATOM     22  N   UNL     1     -24.737  -4.362 -23.745  1.00  0.00    -0.337 N 
ATOM     23  H   UNL     1     -24.516  -3.487 -23.274  1.00  0.00     0.168 HD
BRANCH  22  24
ATOM     24  C   UNL     1     -25.481  -5.206 -22.885  1.00  0.00     0.080 A 
ATOM     25  C   UNL     1     -26.112  -4.748 -21.723  1.00  0.00     0.079 A 
ATOM     26  C   UNL     1     -25.690  -6.545 -23.261  1.00  0.00     0.150 A 
ATOM     27  C   UNL     1     -26.880  -5.618 -20.943  1.00  0.00     0.163 A 
ATOM     28  C   UNL     1     -26.462  -7.417 -22.500  1.00  0.00     0.092 A 
ATOM     29  C   UNL     1     -27.068  -6.946 -21.341  1.00  0.00     0.164 A 
ATOM     30  O   UNL     1     -27.434  -5.093 -19.803  1.00  0.00    -0.486 OA
ATOM     31  O   UNL     1     -27.836  -7.840 -20.640  1.00  0.00    -0.486 OA
ATOM     32  C   UNL     1     -27.890  -6.125 -18.921  1.00  0.00     0.271 C 
ATOM     33  C   UNL     1     -28.675  -7.175 -19.688  1.00  0.00     0.271 C 
ATOM     34  F   UNL     1     -25.121  -7.002 -24.389  1.00  0.00    -0.205 F 
ENDBRANCH  22  24
ENDBRANCH   8  22
BRANCH   6  35
ATOM     35  N   UNL     1     -27.577  -3.171 -27.294  1.00  0.00    -0.368 N 
ATOM     36  H   UNL     1     -28.185  -3.978 -27.310  1.00  0.00     0.159 HD
ATOM     37  H   UNL     1     -27.889  -2.358 -26.783  1.00  0.00     0.159 HD
ENDBRANCH   6  35
TORSDOF 4
ENDMDL
MODEL 14
REMARK VINA RESULT:    -8.378      3.777      5.452
REMARK INTER + INTRA:         -11.099
REMARK INTER:                  -9.810
REMARK INTRA:                  -1.289
REMARK UNBOUND:                -1.006
REMARK SMILES Cc1n[nH]c2ccc(-c3ccc4nc(N)nc(Nc5cc6c(cc5F)OCCO6)c4c3)cc12
REMARK SMILES IDX 9 1 31 2 30 3 12 4 13 5 14 6 16 7 17 8 11 9 10 10 8 11 6 12
REMARK SMILES IDX 7 13 5 14 33 15 4 16 32 17 2 18 3 19 1 21 18 22 19 24 20 25
REMARK SMILES IDX 24 26 21 27 23 28 22 29 29 30 26 31 28 32 27 33 25 34 15 35
REMARK H PARENT 4 20 18 23 15 36 15 37
ROOT
ATOM      1  C   UNL     1     -20.451  -5.668 -31.448  1.00  0.00    -0.017 A 
ATOM      2  C   UNL     1     -20.194  -6.965 -31.916  1.00  0.00     0.023 A 
ATOM      3  C   UNL     1     -20.238  -7.285 -33.300  1.00  0.00     0.044 A 
ATOM      4  C   UNL     1     -20.530  -6.282 -34.229  1.00  0.00     0.078 A 
ATOM      5  N   UNL     1     -20.572  -6.504 -35.545  1.00  0.00    -0.213 NA
ATOM      6  C   UNL     1     -20.295  -7.734 -35.967  1.00  0.00     0.222 A 
ATOM      7  N   UNL     1     -20.031  -8.772 -35.178  1.00  0.00    -0.195 NA
ATOM      8  C   UNL     1     -20.003  -8.557 -33.852  1.00  0.00     0.144 A 
ATOM      9  C   UNL     1     -20.787  -5.001 -33.761  1.00  0.00     0.030 A 
ATOM     10  C   UNL     1     -20.754  -4.688 -32.397  1.00  0.00     0.011 A 
ENDROOT
BRANCH   1  11
ATOM     11  C   UNL     1     -20.401  -5.350 -30.012  1.00  0.00    -0.018 A 
ATOM     12  C   UNL     1     -21.093  -3.922 -28.133  1.00  0.00     0.029 A 
ATOM     13  C   UNL     1     -21.118  -4.256 -29.494  1.00  0.00     0.011 A 
ATOM     14  C   UNL     1     -20.318  -4.729 -27.298  1.00  0.00     0.065 A 
ATOM     15  C   UNL     1     -19.593  -5.819 -27.758  1.00  0.00     0.023 A 
ATOM     16  N   UNL     1     -20.080  -4.682 -25.951  1.00  0.00    -0.278 N 
ATOM     17  C   UNL     1     -19.633  -6.136 -29.131  1.00  0.00     0.021 A 
ATOM     18  C   UNL     1     -18.959  -6.348 -26.602  1.00  0.00     0.067 A 
ATOM     19  N   UNL     1     -19.260  -5.648 -25.501  1.00  0.00    -0.180 NA
ATOM     20  H   UNL     1     -20.445  -4.015 -25.281  1.00  0.00     0.190 HD
ATOM     21  C   UNL     1     -18.054  -7.521 -26.520  1.00  0.00     0.069 C 
ENDBRANCH   1  11
BRANCH   8  22
ATOM     22  N   UNL     1     -19.737  -9.645 -32.979  1.00  0.00    -0.337 N 
ATOM     23  H   UNL     1     -20.486 -10.332 -33.047  1.00  0.00     0.168 HD
BRANCH  22  24
ATOM     24  C   UNL     1     -18.500 -10.293 -32.743  1.00  0.00     0.080 A 
ATOM     25  C   UNL     1     -17.586  -9.867 -31.773  1.00  0.00     0.079 A 
ATOM     26  C   UNL     1     -18.213 -11.482 -33.437  1.00  0.00     0.150 A 
ATOM     27  C   UNL     1     -16.406 -10.581 -31.548  1.00  0.00     0.163 A 
ATOM     28  C   UNL     1     -17.048 -12.209 -33.213  1.00  0.00     0.092 A 
ATOM     29  C   UNL     1     -16.146 -11.760 -32.255  1.00  0.00     0.164 A 
ATOM     30  O   UNL     1     -15.552 -10.073 -30.602  1.00  0.00    -0.486 OA
ATOM     31  O   UNL     1     -15.025 -12.525 -32.058  1.00  0.00    -0.486 OA
ATOM     32  C   UNL     1     -14.252 -10.665 -30.700  1.00  0.00     0.271 C 
ATOM     33  C   UNL     1     -14.361 -12.174 -30.838  1.00  0.00     0.271 C 
ATOM     34  F   UNL     1     -19.089 -11.931 -34.352  1.00  0.00    -0.205 F 
ENDBRANCH  22  24
ENDBRANCH   8  22
BRANCH   6  35
ATOM     35  N   UNL     1     -20.338  -7.966 -37.326  1.00  0.00    -0.368 N 
ATOM     36  H   UNL     1     -20.021  -7.144 -37.822  1.00  0.00     0.159 HD
ATOM     37  H   UNL     1     -19.887  -8.844 -37.540  1.00  0.00     0.159 HD
ENDBRANCH   6  35
TORSDOF 4
ENDMDL
MODEL 15
REMARK VINA RESULT:    -8.223      3.550      8.360
REMARK INTER + INTRA:         -10.911
REMARK INTER:                  -9.795
REMARK INTRA:                  -1.117
REMARK UNBOUND:                -1.006
REMARK SMILES Cc1n[nH]c2ccc(-c3ccc4nc(N)nc(Nc5cc6c(cc5F)OCCO6)c4c3)cc12
REMARK SMILES IDX 9 1 31 2 30 3 12 4 13 5 14 6 16 7 17 8 11 9 10 10 8 11 6 12
REMARK SMILES IDX 7 13 5 14 33 15 4 16 32 17 2 18 3 19 1 21 18 22 19 24 20 25
REMARK SMILES IDX 24 26 21 27 23 28 22 29 29 30 26 31 28 32 27 33 25 34 15 35
REMARK H PARENT 4 20 18 23 15 36 15 37
ROOT
ATOM      1  C   UNL     1     -18.927  -8.538 -32.150  1.00  0.00    -0.017 A 
ATOM      2  C   UNL     1     -19.697  -8.073 -31.074  1.00  0.00     0.023 A 
ATOM      3  C   UNL     1     -19.230  -8.140 -29.733  1.00  0.00     0.044 A 
ATOM      4  C   UNL     1     -17.962  -8.667 -29.472  1.00  0.00     0.078 A 
ATOM      5  N   UNL     1     -17.449  -8.744 -28.242  1.00  0.00    -0.213 NA
ATOM      6  C   UNL     1     -18.186  -8.270 -27.241  1.00  0.00     0.222 A 
ATOM      7  N   UNL     1     -19.413  -7.772 -27.364  1.00  0.00    -0.195 NA
ATOM      8  C   UNL     1     -19.939  -7.706 -28.599  1.00  0.00     0.144 A 
ATOM      9  C   UNL     1     -17.204  -9.128 -30.539  1.00  0.00     0.030 A 
ATOM     10  C   UNL     1     -17.669  -9.072 -31.858  1.00  0.00     0.011 A 
ENDROOT
BRANCH   1  11
ATOM     11  C   UNL     1     -19.423  -8.463 -33.533  1.00  0.00    -0.018 A 
ATOM     12  C   UNL     1     -20.303  -7.125 -35.399  1.00  0.00     0.029 A 
ATOM     13  C   UNL     1     -19.824  -7.234 -34.086  1.00  0.00     0.011 A 
ATOM     14  C   UNL     1     -20.368  -8.300 -36.149  1.00  0.00     0.065 A 
ATOM     15  C   UNL     1     -19.985  -9.538 -35.651  1.00  0.00     0.023 A 
ATOM     16  N   UNL     1     -20.778  -8.541 -37.432  1.00  0.00    -0.278 N 
ATOM     17  C   UNL     1     -19.506  -9.624 -34.328  1.00  0.00     0.021 A 
ATOM     18  C   UNL     1     -20.209 -10.446 -36.720  1.00  0.00     0.067 A 
ATOM     19  N   UNL     1     -20.695  -9.830 -37.806  1.00  0.00    -0.180 NA
ATOM     20  H   UNL     1     -21.128  -7.869 -38.105  1.00  0.00     0.190 HD
ATOM     21  C   UNL     1     -19.973 -11.910 -36.732  1.00  0.00     0.069 C 
ENDBRANCH   1  11
BRANCH   8  22
ATOM     22  N   UNL     1     -21.252  -7.192 -28.765  1.00  0.00    -0.337 N 
ATOM     23  H   UNL     1     -21.835  -7.478 -27.981  1.00  0.00     0.168 HD
BRANCH  22  24
ATOM     24  C   UNL     1     -21.636  -5.906 -29.215  1.00  0.00     0.080 A 
ATOM     25  C   UNL     1     -22.314  -5.688 -30.420  1.00  0.00     0.079 A 
ATOM     26  C   UNL     1     -21.425  -4.800 -28.373  1.00  0.00     0.150 A 
ATOM     27  C   UNL     1     -22.717  -4.401 -30.785  1.00  0.00     0.163 A 
ATOM     28  C   UNL     1     -21.831  -3.515 -28.719  1.00  0.00     0.092 A 
ATOM     29  C   UNL     1     -22.491  -3.318 -29.927  1.00  0.00     0.164 A 
ATOM     30  O   UNL     1     -23.346  -4.274 -31.998  1.00  0.00    -0.486 OA
ATOM     31  O   UNL     1     -22.890  -2.037 -30.209  1.00  0.00    -0.486 OA
ATOM     32  C   UNL     1     -23.395  -2.907 -32.421  1.00  0.00     0.271 C 
ATOM     33  C   UNL     1     -23.844  -2.011 -31.279  1.00  0.00     0.271 C 
ATOM     34  F   UNL     1     -20.803  -4.986 -27.197  1.00  0.00    -0.205 F 
ENDBRANCH  22  24
ENDBRANCH   8  22
BRANCH   6  35
ATOM     35  N   UNL     1     -17.658  -8.349 -25.969  1.00  0.00    -0.368 N 
ATOM     36  H   UNL     1     -17.040  -9.146 -25.905  1.00  0.00     0.159 HD
ATOM     37  H   UNL     1     -17.293  -7.450 -25.691  1.00  0.00     0.159 HD
ENDBRANCH   6  35
TORSDOF 4
ENDMDL
MODEL 16
REMARK VINA RESULT:    -8.203      3.768      6.764
REMARK INTER + INTRA:         -10.888
REMARK INTER:                  -9.589
REMARK INTRA:                  -1.299
REMARK UNBOUND:                -1.006
REMARK SMILES Cc1n[nH]c2ccc(-c3ccc4nc(N)nc(Nc5cc6c(cc5F)OCCO6)c4c3)cc12
REMARK SMILES IDX 9 1 31 2 30 3 12 4 13 5 14 6 16 7 17 8 11 9 10 10 8 11 6 12
REMARK SMILES IDX 7 13 5 14 33 15 4 16 32 17 2 18 3 19 1 21 18 22 19 24 20 25
REMARK SMILES IDX 24 26 21 27 23 28 22 29 29 30 26 31 28 32 27 33 25 34 15 35
REMARK H PARENT 4 20 18 23 15 36 15 37
ROOT
ATOM      1  C   UNL     1     -20.390  -6.648 -32.366  1.00  0.00    -0.017 A 
ATOM      2  C   UNL     1     -21.101  -6.096 -31.291  1.00  0.00     0.023 A 
ATOM      3  C   UNL     1     -21.909  -4.936 -31.442  1.00  0.00     0.044 A 
ATOM      4  C   UNL     1     -22.016  -4.331 -32.698  1.00  0.00     0.078 A 
ATOM      5  N   UNL     1     -22.769  -3.252 -32.919  1.00  0.00    -0.213 NA
ATOM      6  C   UNL     1     -23.458  -2.764 -31.891  1.00  0.00     0.222 A 
ATOM      7  N   UNL     1     -23.415  -3.237 -30.649  1.00  0.00    -0.195 NA
ATOM      8  C   UNL     1     -22.646  -4.315 -30.417  1.00  0.00     0.144 A 
ATOM      9  C   UNL     1     -21.309  -4.879 -33.758  1.00  0.00     0.030 A 
ATOM     10  C   UNL     1     -20.505  -6.015 -33.607  1.00  0.00     0.011 A 
ENDROOT
BRANCH   1  11
ATOM     11  C   UNL     1     -19.558  -7.849 -32.196  1.00  0.00    -0.018 A 
ATOM     12  C   UNL     1     -18.395  -9.779 -33.182  1.00  0.00     0.029 A 
ATOM     13  C   UNL     1     -19.185  -8.627 -33.306  1.00  0.00     0.011 A 
ATOM     14  C   UNL     1     -17.985 -10.128 -31.894  1.00  0.00     0.065 A 
ATOM     15  C   UNL     1     -18.324  -9.394 -30.766  1.00  0.00     0.023 A 
ATOM     16  N   UNL     1     -17.224 -11.168 -31.431  1.00  0.00    -0.278 N 
ATOM     17  C   UNL     1     -19.120  -8.241 -30.915  1.00  0.00     0.021 A 
ATOM     18  C   UNL     1     -17.715 -10.087 -29.685  1.00  0.00     0.067 A 
ATOM     19  N   UNL     1     -17.045 -11.170 -30.099  1.00  0.00    -0.180 NA
ATOM     20  H   UNL     1     -16.799 -11.911 -31.973  1.00  0.00     0.190 HD
ATOM     21  C   UNL     1     -17.760  -9.738 -28.244  1.00  0.00     0.069 C 
ENDBRANCH   1  11
BRANCH   8  22
ATOM     22  N   UNL     1     -22.566  -4.838 -29.100  1.00  0.00    -0.337 N 
ATOM     23  H   UNL     1     -23.295  -5.535 -28.963  1.00  0.00     0.168 HD
BRANCH  22  24
ATOM     24  C   UNL     1     -21.406  -5.194 -28.370  1.00  0.00     0.080 A 
ATOM     25  C   UNL     1     -20.492  -4.255 -27.881  1.00  0.00     0.079 A 
ATOM     26  C   UNL     1     -21.208  -6.543 -28.025  1.00  0.00     0.150 A 
ATOM     27  C   UNL     1     -19.395  -4.663 -27.118  1.00  0.00     0.163 A 
ATOM     28  C   UNL     1     -20.127  -6.961 -27.256  1.00  0.00     0.092 A 
ATOM     29  C   UNL     1     -19.222  -6.013 -26.792  1.00  0.00     0.164 A 
ATOM     30  O   UNL     1     -18.531  -3.679 -26.707  1.00  0.00    -0.486 OA
ATOM     31  O   UNL     1     -18.187  -6.475 -26.020  1.00  0.00    -0.486 OA
ATOM     32  C   UNL     1     -17.290  -4.229 -26.251  1.00  0.00     0.271 C 
ATOM     33  C   UNL     1     -17.538  -5.405 -25.322  1.00  0.00     0.271 C 
ATOM     34  F   UNL     1     -22.088  -7.462 -28.455  1.00  0.00    -0.205 F 
ENDBRANCH  22  24
ENDBRANCH   8  22
BRANCH   6  35
ATOM     35  N   UNL     1     -24.237  -1.649 -32.118  1.00  0.00    -0.368 N 
ATOM     36  H   UNL     1     -24.062  -1.294 -33.048  1.00  0.00     0.159 HD
ATOM     37  H   UNL     1     -25.195  -1.840 -31.863  1.00  0.00     0.159 HD
ENDBRANCH   6  35
TORSDOF 4
ENDMDL
MODEL 17
REMARK VINA RESULT:    -8.150      4.851      7.535
REMARK INTER + INTRA:         -10.824
REMARK INTER:                  -9.849
REMARK INTRA:                  -0.975
REMARK UNBOUND:                -1.006
REMARK SMILES Cc1n[nH]c2ccc(-c3ccc4nc(N)nc(Nc5cc6c(cc5F)OCCO6)c4c3)cc12
REMARK SMILES IDX 9 1 31 2 30 3 12 4 13 5 14 6 16 7 17 8 11 9 10 10 8 11 6 12
REMARK SMILES IDX 7 13 5 14 33 15 4 16 32 17 2 18 3 19 1 21 18 22 19 24 20 25
REMARK SMILES IDX 24 26 21 27 23 28 22 29 29 30 26 31 28 32 27 33 25 34 15 35
REMARK H PARENT 4 20 18 23 15 36 15 37
ROOT
ATOM      1  C   UNL     1     -20.140  -5.954 -27.898  1.00  0.00    -0.017 A 
ATOM      2  C   UNL     1     -21.285  -5.220 -27.555  1.00  0.00     0.023 A 
ATOM      3  C   UNL     1     -21.969  -4.410 -28.503  1.00  0.00     0.044 A 
ATOM      4  C   UNL     1     -21.504  -4.351 -29.820  1.00  0.00     0.078 A 
ATOM      5  N   UNL     1     -22.104  -3.628 -30.768  1.00  0.00    -0.213 NA
ATOM      6  C   UNL     1     -23.205  -2.964 -30.426  1.00  0.00     0.222 A 
ATOM      7  N   UNL     1     -23.725  -2.923 -29.203  1.00  0.00    -0.195 NA
ATOM      8  C   UNL     1     -23.115  -3.638 -28.241  1.00  0.00     0.144 A 
ATOM      9  C   UNL     1     -20.370  -5.077 -30.154  1.00  0.00     0.030 A 
ATOM     10  C   UNL     1     -19.690  -5.865 -29.218  1.00  0.00     0.011 A 
ENDROOT
BRANCH   1  11
ATOM     11  C   UNL     1     -19.442  -6.788 -26.907  1.00  0.00    -0.018 A 
ATOM     12  C   UNL     1     -17.475  -7.194 -25.489  1.00  0.00     0.029 A 
ATOM     13  C   UNL     1     -18.170  -6.423 -26.431  1.00  0.00     0.011 A 
ATOM     14  C   UNL     1     -18.102  -8.355 -25.034  1.00  0.00     0.065 A 
ATOM     15  C   UNL     1     -19.356  -8.759 -25.472  1.00  0.00     0.023 A 
ATOM     16  N   UNL     1     -17.710  -9.311 -24.137  1.00  0.00    -0.278 N 
ATOM     17  C   UNL     1     -20.036  -7.969 -26.419  1.00  0.00     0.021 A 
ATOM     18  C   UNL     1     -19.613  -9.969 -24.772  1.00  0.00     0.067 A 
ATOM     19  N   UNL     1     -18.602 -10.300 -23.959  1.00  0.00    -0.180 NA
ATOM     20  H   UNL     1     -16.843  -9.347 -23.613  1.00  0.00     0.190 HD
ATOM     21  C   UNL     1     -20.814 -10.833 -24.865  1.00  0.00     0.069 C 
ENDBRANCH   1  11
BRANCH   8  22
ATOM     22  N   UNL     1     -23.635  -3.607 -26.920  1.00  0.00    -0.337 N 
ATOM     23  H   UNL     1     -23.370  -2.735 -26.467  1.00  0.00     0.168 HD
BRANCH  22  24
ATOM     24  C   UNL     1     -24.914  -4.021 -26.475  1.00  0.00     0.080 A 
ATOM     25  C   UNL     1     -25.773  -4.811 -27.247  1.00  0.00     0.079 A 
ATOM     26  C   UNL     1     -25.306  -3.718 -25.159  1.00  0.00     0.150 A 
ATOM     27  C   UNL     1     -27.001  -5.235 -26.731  1.00  0.00     0.163 A 
ATOM     28  C   UNL     1     -26.520  -4.144 -24.630  1.00  0.00     0.092 A 
ATOM     29  C   UNL     1     -27.366  -4.915 -25.418  1.00  0.00     0.164 A 
ATOM     30  O   UNL     1     -27.796  -5.977 -27.568  1.00  0.00    -0.486 OA
ATOM     31  O   UNL     1     -28.539  -5.329 -24.841  1.00  0.00    -0.486 OA
ATOM     32  C   UNL     1     -29.140  -6.055 -27.080  1.00  0.00     0.271 C 
ATOM     33  C   UNL     1     -29.152  -6.381 -25.597  1.00  0.00     0.271 C 
ATOM     34  F   UNL     1     -24.486  -2.987 -24.387  1.00  0.00    -0.205 F 
ENDBRANCH  22  24
ENDBRANCH   8  22
BRANCH   6  35
ATOM     35  N   UNL     1     -23.827  -2.216 -31.404  1.00  0.00    -0.368 N 
ATOM     36  H   UNL     1     -24.813  -2.434 -31.425  1.00  0.00     0.159 HD
ATOM     37  H   UNL     1     -23.564  -1.245 -31.314  1.00  0.00     0.159 HD
ENDBRANCH   6  35
TORSDOF 4
ENDMDL
MODEL 18
REMARK VINA RESULT:    -8.148      4.134      7.361
REMARK INTER + INTRA:         -10.822
REMARK INTER:                  -9.742
REMARK INTRA:                  -1.080
REMARK UNBOUND:                -1.006
REMARK SMILES Cc1n[nH]c2ccc(-c3ccc4nc(N)nc(Nc5cc6c(cc5F)OCCO6)c4c3)cc12
REMARK SMILES IDX 9 1 31 2 30 3 12 4 13 5 14 6 16 7 17 8 11 9 10 10 8 11 6 12
REMARK SMILES IDX 7 13 5 14 33 15 4 16 32 17 2 18 3 19 1 21 18 22 19 24 20 25
REMARK SMILES IDX 24 26 21 27 23 28 22 29 29 30 26 31 28 32 27 33 25 34 15 35
REMARK H PARENT 4 20 18 23 15 36 15 37
ROOT
ATOM      1  C   UNL     1     -23.484  -4.210 -28.760  1.00  0.00    -0.017 A 
ATOM      2  C   UNL     1     -22.617  -5.238 -29.159  1.00  0.00     0.023 A 
ATOM      3  C   UNL     1     -21.953  -5.212 -30.416  1.00  0.00     0.044 A 
ATOM      4  C   UNL     1     -22.152  -4.130 -31.277  1.00  0.00     0.078 A 
ATOM      5  N   UNL     1     -21.549  -4.029 -32.464  1.00  0.00    -0.213 NA
ATOM      6  C   UNL     1     -20.708  -5.000 -32.808  1.00  0.00     0.222 A 
ATOM      7  N   UNL     1     -20.460  -6.088 -32.086  1.00  0.00    -0.195 NA
ATOM      8  C   UNL     1     -21.077  -6.203 -30.897  1.00  0.00     0.144 A 
ATOM      9  C   UNL     1     -23.013  -3.117 -30.880  1.00  0.00     0.030 A 
ATOM     10  C   UNL     1     -23.675  -3.147 -29.647  1.00  0.00     0.011 A 
ENDROOT
BRANCH   1  11
ATOM     11  C   UNL     1     -24.165  -4.249 -27.456  1.00  0.00    -0.018 A 
ATOM     12  C   UNL     1     -24.077  -3.999 -25.012  1.00  0.00     0.029 A 
ATOM     13  C   UNL     1     -23.462  -3.970 -26.271  1.00  0.00     0.011 A 
ATOM     14  C   UNL     1     -25.435  -4.319 -24.978  1.00  0.00     0.065 A 
ATOM     15  C   UNL     1     -26.175  -4.603 -26.118  1.00  0.00     0.023 A 
ATOM     16  N   UNL     1     -26.318  -4.433 -23.939  1.00  0.00    -0.278 N 
ATOM     17  C   UNL     1     -25.535  -4.568 -27.373  1.00  0.00     0.021 A 
ATOM     18  C   UNL     1     -27.486  -4.873 -25.642  1.00  0.00     0.067 A 
ATOM     19  N   UNL     1     -27.567  -4.769 -24.310  1.00  0.00    -0.180 NA
ATOM     20  H   UNL     1     -26.133  -4.297 -22.952  1.00  0.00     0.190 HD
ATOM     21  C   UNL     1     -28.682  -5.239 -26.439  1.00  0.00     0.069 C 
ENDBRANCH   1  11
BRANCH   8  22
ATOM     22  N   UNL     1     -20.846  -7.358 -30.105  1.00  0.00    -0.337 N 
ATOM     23  H   UNL     1     -20.966  -8.194 -30.673  1.00  0.00     0.168 HD
BRANCH  22  24
ATOM     24  C   UNL     1     -19.833  -7.566 -29.138  1.00  0.00     0.080 A 
ATOM     25  C   UNL     1     -19.608  -6.696 -28.065  1.00  0.00     0.079 A 
ATOM     26  C   UNL     1     -19.079  -8.752 -29.189  1.00  0.00     0.150 A 
ATOM     27  C   UNL     1     -18.629  -6.984 -27.111  1.00  0.00     0.163 A 
ATOM     28  C   UNL     1     -18.109  -9.056 -28.239  1.00  0.00     0.092 A 
ATOM     29  C   UNL     1     -17.892  -8.172 -27.189  1.00  0.00     0.164 A 
ATOM     30  O   UNL     1     -18.453  -6.060 -26.112  1.00  0.00    -0.486 OA
ATOM     31  O   UNL     1     -16.942  -8.530 -26.267  1.00  0.00    -0.486 OA
ATOM     32  C   UNL     1     -17.222  -6.273 -25.413  1.00  0.00     0.271 C 
ATOM     33  C   UNL     1     -17.048  -7.743 -25.074  1.00  0.00     0.271 C 
ATOM     34  F   UNL     1     -19.295  -9.620 -30.191  1.00  0.00    -0.205 F 
ENDBRANCH  22  24
ENDBRANCH   8  22
BRANCH   6  35
ATOM     35  N   UNL     1     -20.084  -4.897 -34.034  1.00  0.00    -0.368 N 
ATOM     36  H   UNL     1     -20.189  -5.763 -34.544  1.00  0.00     0.159 HD
ATOM     37  H   UNL     1     -20.368  -4.045 -34.495  1.00  0.00     0.159 HD
ENDBRANCH   6  35
TORSDOF 4
ENDMDL
MODEL 19
REMARK VINA RESULT:    -8.147      3.392      7.451
REMARK INTER + INTRA:         -10.821
REMARK INTER:                  -9.569
REMARK INTRA:                  -1.252
REMARK UNBOUND:                -1.006
REMARK SMILES Cc1n[nH]c2ccc(-c3ccc4nc(N)nc(Nc5cc6c(cc5F)OCCO6)c4c3)cc12
REMARK SMILES IDX 9 1 31 2 30 3 12 4 13 5 14 6 16 7 17 8 11 9 10 10 8 11 6 12
REMARK SMILES IDX 7 13 5 14 33 15 4 16 32 17 2 18 3 19 1 21 18 22 19 24 20 25
REMARK SMILES IDX 24 26 21 27 23 28 22 29 29 30 26 31 28 32 27 33 25 34 15 35
REMARK H PARENT 4 20 18 23 15 36 15 37
ROOT
ATOM      1  C   UNL     1     -21.205  -5.109 -31.618  1.00  0.00    -0.017 A 
ATOM      2  C   UNL     1     -20.447  -5.526 -30.514  1.00  0.00     0.023 A 
ATOM      3  C   UNL     1     -20.859  -5.263 -29.179  1.00  0.00     0.044 A 
ATOM      4  C   UNL     1     -22.060  -4.586 -28.951  1.00  0.00     0.078 A 
ATOM      5  N   UNL     1     -22.520  -4.320 -27.726  1.00  0.00    -0.213 NA
ATOM      6  C   UNL     1     -21.799  -4.751 -26.695  1.00  0.00     0.222 A 
ATOM      7  N   UNL     1     -20.631  -5.380 -26.788  1.00  0.00    -0.195 NA
ATOM      8  C   UNL     1     -20.156  -5.636 -28.020  1.00  0.00     0.144 A 
ATOM      9  C   UNL     1     -22.806  -4.173 -30.046  1.00  0.00     0.030 A 
ATOM     10  C   UNL     1     -22.395  -4.422 -31.360  1.00  0.00     0.011 A 
ENDROOT
BRANCH   1  11
ATOM     11  C   UNL     1     -20.767  -5.388 -32.995  1.00  0.00    -0.018 A 
ATOM     12  C   UNL     1     -20.140  -4.566 -35.226  1.00  0.00     0.029 A 
ATOM     13  C   UNL     1     -20.555  -4.338 -33.907  1.00  0.00     0.011 A 
ATOM     14  C   UNL     1     -19.941  -5.894 -35.606  1.00  0.00     0.065 A 
ATOM     15  C   UNL     1     -20.136  -6.966 -34.746  1.00  0.00     0.023 A 
ATOM     16  N   UNL     1     -19.546  -6.453 -36.792  1.00  0.00    -0.278 N 
ATOM     17  C   UNL     1     -20.554  -6.713 -33.424  1.00  0.00     0.021 A 
ATOM     18  C   UNL     1     -19.830  -8.115 -35.522  1.00  0.00     0.067 A 
ATOM     19  N   UNL     1     -19.471  -7.795 -36.772  1.00  0.00    -0.180 NA
ATOM     20  H   UNL     1     -19.314  -5.973 -37.654  1.00  0.00     0.190 HD
ATOM     21  C   UNL     1     -19.877  -9.535 -35.097  1.00  0.00     0.069 C 
ENDBRANCH   1  11
BRANCH   8  22
ATOM     22  N   UNL     1     -18.906  -6.295 -28.157  1.00  0.00    -0.337 N 
ATOM     23  H   UNL     1     -18.188  -5.778 -27.654  1.00  0.00     0.168 HD
BRANCH  22  24
ATOM     24  C   UNL     1     -18.640  -7.685 -28.097  1.00  0.00     0.080 A 
ATOM     25  C   UNL     1     -19.118  -8.597 -29.044  1.00  0.00     0.079 A 
ATOM     26  C   UNL     1     -17.770  -8.167 -27.103  1.00  0.00     0.150 A 
ATOM     27  C   UNL     1     -18.774  -9.949 -28.963  1.00  0.00     0.163 A 
ATOM     28  C   UNL     1     -17.411  -9.509 -27.018  1.00  0.00     0.092 A 
ATOM     29  C   UNL     1     -17.908 -10.401 -27.961  1.00  0.00     0.164 A 
ATOM     30  O   UNL     1     -19.314 -10.778 -29.914  1.00  0.00    -0.486 OA
ATOM     31  O   UNL     1     -17.505 -11.707 -27.847  1.00  0.00    -0.486 OA
ATOM     32  C   UNL     1     -19.189 -12.154 -29.539  1.00  0.00     0.271 C 
ATOM     33  C   UNL     1     -17.784 -12.447 -29.042  1.00  0.00     0.271 C 
ATOM     34  F   UNL     1     -17.272  -7.307 -26.199  1.00  0.00    -0.205 F 
ENDBRANCH  22  24
ENDBRANCH   8  22
BRANCH   6  35
ATOM     35  N   UNL     1     -22.272  -4.477 -25.428  1.00  0.00    -0.368 N 
ATOM     36  H   UNL     1     -23.134  -3.955 -25.492  1.00  0.00     0.159 HD
ATOM     37  H   UNL     1     -22.275  -5.320 -24.873  1.00  0.00     0.159 HD
ENDBRANCH   6  35
TORSDOF 4
ENDMDL
MODEL 20
REMARK VINA RESULT:    -8.146      6.102      8.703
REMARK INTER + INTRA:         -10.819
REMARK INTER:                  -9.727
REMARK INTRA:                  -1.092
REMARK UNBOUND:                -1.006
REMARK SMILES Cc1n[nH]c2ccc(-c3ccc4nc(N)nc(Nc5cc6c(cc5F)OCCO6)c4c3)cc12
REMARK SMILES IDX 9 1 31 2 30 3 12 4 13 5 14 6 16 7 17 8 11 9 10 10 8 11 6 12
REMARK SMILES IDX 7 13 5 14 33 15 4 16 32 17 2 18 3 19 1 21 18 22 19 24 20 25
REMARK SMILES IDX 24 26 21 27 23 28 22 29 29 30 26 31 28 32 27 33 25 34 15 35
REMARK H PARENT 4 20 18 23 15 36 15 37
ROOT
ATOM      1  C   UNL     1     -25.644  -4.680 -25.009  1.00  0.00    -0.017 A 
ATOM      2  C   UNL     1     -24.245  -4.693 -25.114  1.00  0.00     0.023 A 
ATOM      3  C   UNL     1     -23.581  -4.352 -26.324  1.00  0.00     0.044 A 
ATOM      4  C   UNL     1     -24.334  -3.979 -27.440  1.00  0.00     0.078 A 
ATOM      5  N   UNL     1     -23.779  -3.629 -28.603  1.00  0.00    -0.213 NA
ATOM      6  C   UNL     1     -22.451  -3.620 -28.670  1.00  0.00     0.222 A 
ATOM      7  N   UNL     1     -21.634  -3.980 -27.685  1.00  0.00    -0.195 NA
ATOM      8  C   UNL     1     -22.188  -4.348 -26.517  1.00  0.00     0.144 A 
ATOM      9  C   UNL     1     -25.717  -3.970 -27.333  1.00  0.00     0.030 A 
ATOM     10  C   UNL     1     -26.372  -4.316 -26.145  1.00  0.00     0.011 A 
ENDROOT
BRANCH   1  11
ATOM     11  C   UNL     1     -26.319  -5.034 -23.750  1.00  0.00    -0.018 A 
ATOM     12  C   UNL     1     -28.353  -5.741 -22.563  1.00  0.00     0.029 A 
ATOM     13  C   UNL     1     -27.677  -5.399 -23.743  1.00  0.00     0.011 A 
ATOM     14  C   UNL     1     -27.616  -5.705 -21.378  1.00  0.00     0.065 A 
ATOM     15  C   UNL     1     -26.274  -5.352 -21.331  1.00  0.00     0.023 A 
ATOM     16  N   UNL     1     -27.962  -5.974 -20.082  1.00  0.00    -0.278 N 
ATOM     17  C   UNL     1     -25.615  -5.012 -22.530  1.00  0.00     0.021 A 
ATOM     18  C   UNL     1     -25.922  -5.442 -19.958  1.00  0.00     0.067 A 
ATOM     19  N   UNL     1     -26.958  -5.822 -19.200  1.00  0.00    -0.180 NA
ATOM     20  H   UNL     1     -28.867  -6.263 -19.731  1.00  0.00     0.190 HD
ATOM     21  C   UNL     1     -24.603  -5.167 -19.340  1.00  0.00     0.069 C 
ENDBRANCH   1  11
BRANCH   8  22
ATOM     22  N   UNL     1     -21.345  -4.751 -25.447  1.00  0.00    -0.337 N 
ATOM     23  H   UNL     1     -21.904  -4.912 -24.611  1.00  0.00     0.168 HD
BRANCH  22  24
ATOM     24  C   UNL     1     -20.255  -5.653 -25.487  1.00  0.00     0.080 A 
ATOM     25  C   UNL     1     -20.393  -7.007 -25.816  1.00  0.00     0.079 A 
ATOM     26  C   UNL     1     -18.954  -5.156 -25.290  1.00  0.00     0.150 A 
ATOM     27  C   UNL     1     -19.271  -7.836 -25.893  1.00  0.00     0.163 A 
ATOM     28  C   UNL     1     -17.828  -5.969 -25.376  1.00  0.00     0.092 A 
ATOM     29  C   UNL     1     -17.988  -7.313 -25.690  1.00  0.00     0.164 A 
ATOM     30  O   UNL     1     -19.501  -9.156 -26.188  1.00  0.00    -0.486 OA
ATOM     31  O   UNL     1     -16.845  -8.065 -25.784  1.00  0.00    -0.486 OA
ATOM     32  C   UNL     1     -18.355  -9.964 -25.900  1.00  0.00     0.271 C 
ATOM     33  C   UNL     1     -17.093  -9.314 -26.441  1.00  0.00     0.271 C 
ATOM     34  F   UNL     1     -18.791  -3.854 -25.004  1.00  0.00    -0.205 F 
ENDBRANCH  22  24
ENDBRANCH   8  22
BRANCH   6  35
ATOM     35  N   UNL     1     -21.876  -3.259 -29.871  1.00  0.00    -0.368 N 
ATOM     36  H   UNL     1     -21.643  -2.276 -29.856  1.00  0.00     0.159 HD
ATOM     37  H   UNL     1     -21.143  -3.911 -30.111  1.00  0.00     0.159 HD
ENDBRANCH   6  35
TORSDOF 4
ENDMDL
