REMARK SMILES Cc1n[nH]c2ccc(-c3ccc4nc(N)nc(Nc5cc6c(cc5F)OCCO6)c4c3)cc12
REMARK SMILES IDX 9 1 31 2 30 3 12 4 13 5 14 6 16 7 17 8 11 9 10 10 8 11 6 12
REMARK SMILES IDX 7 13 5 14 33 15 4 16 32 17 2 18 3 19 1 21 18 22 19 24 20 25
REMARK SMILES IDX 24 26 21 27 23 28 22 29 29 30 26 31 28 32 27 33 25 34 15 35
REMARK H PARENT 4 20 18 23 15 36 15 37
ROOT
ATOM      1  C   UNL     1      -2.492   0.810  -0.662  1.00  0.00    -0.017 A 
ATOM      2  C   UNL     1      -1.155   0.431  -0.473  1.00  0.00     0.023 A 
ATOM      3  C   UNL     1      -0.161   0.670  -1.461  1.00  0.00     0.044 A 
ATOM      4  C   UNL     1      -0.514   1.314  -2.650  1.00  0.00     0.078 A 
ATOM      5  N   UNL     1       0.368   1.588  -3.614  1.00  0.00    -0.213 NA
ATOM      6  C   UNL     1       1.635   1.246  -3.400  1.00  0.00     0.222 A 
ATOM      7  N   UNL     1       2.083   0.607  -2.323  1.00  0.00    -0.195 NA
ATOM      8  C   UNL     1       1.196   0.315  -1.356  1.00  0.00     0.144 A 
ATOM      9  C   UNL     1      -1.838   1.685  -2.834  1.00  0.00     0.030 A 
ATOM     10  C   UNL     1      -2.819   1.440  -1.866  1.00  0.00     0.011 A 
ENDROOT
BRANCH   1  11
ATOM     11  C   UNL     1      -3.511   0.557   0.369  1.00  0.00    -0.018 A 
ATOM     12  C   UNL     1      -4.278   0.795   2.693  1.00  0.00     0.029 A 
ATOM     13  C   UNL     1      -3.330   1.019   1.685  1.00  0.00     0.011 A 
ATOM     14  C   UNL     1      -5.426   0.086   2.336  1.00  0.00     0.065 A 
ATOM     15  C   UNL     1      -5.653  -0.391   1.052  1.00  0.00     0.023 A 
ATOM     16  N   UNL     1      -6.523  -0.296   3.060  1.00  0.00    -0.278 N 
ATOM     17  C   UNL     1      -4.686  -0.154   0.055  1.00  0.00     0.021 A 
ATOM     18  C   UNL     1      -6.913  -1.043   1.124  1.00  0.00     0.067 A 
ATOM     19  N   UNL     1      -7.439  -0.982   2.354  1.00  0.00    -0.180 NA
ATOM     20  H   UNL     1      -6.707  -0.122   4.041  1.00  0.00     0.190 HD
ATOM     21  C   UNL     1      -7.638  -1.738   0.033  1.00  0.00     0.069 C 
ENDBRANCH   1  11
BRANCH   8  22
ATOM     22  N   UNL     1       1.637  -0.378  -0.198  1.00  0.00    -0.337 N 
ATOM     23  H   UNL     1       1.053  -1.198  -0.045  1.00  0.00     0.168 HD
BRANCH  22  24
ATOM     24  C   UNL     1       2.967  -0.643   0.208  1.00  0.00     0.080 A 
ATOM     25  C   UNL     1       4.031   0.232  -0.039  1.00  0.00     0.079 A 
ATOM     26  C   UNL     1       3.225  -1.785   0.987  1.00  0.00     0.150 A 
ATOM     27  C   UNL     1       5.313  -0.058   0.436  1.00  0.00     0.163 A 
ATOM     28  C   UNL     1       4.494  -2.079   1.476  1.00  0.00     0.092 A 
ATOM     29  C   UNL     1       5.540  -1.204   1.207  1.00  0.00     0.164 A 
ATOM     30  O   UNL     1       6.303   0.838   0.119  1.00  0.00    -0.486 OA
ATOM     31  O   UNL     1       6.765  -1.528   1.731  1.00  0.00    -0.486 OA
ATOM     32  C   UNL     1       7.603   0.281   0.343  1.00  0.00     0.271 C 
ATOM     33  C   UNL     1       7.662  -0.411   1.694  1.00  0.00     0.271 C 
ATOM     34  F   UNL     1       2.215  -2.626   1.265  1.00  0.00    -0.205 F 
ENDBRANCH  22  24
ENDBRANCH   8  22
BRANCH   6  35
ATOM     35  N   UNL     1       2.548   1.528  -4.395  1.00  0.00    -0.368 N 
ATOM     36  H   UNL     1       3.331   0.893  -4.329  1.00  0.00     0.159 HD
ATOM     37  H   UNL     1       2.076   1.599  -5.285  1.00  0.00     0.159 HD
ENDBRANCH   6  35
TORSDOF 4
