MODEL 1
REMARK VINA RESULT:    -9.647      0.000      0.000
REMARK INTER + INTRA:         -13.033
REMARK INTER:                 -11.902
REMARK INTRA:                  -1.131
REMARK UNBOUND:                -1.131
REMARK SMILES C[C@]1(C(=O)N2C[C@@H](c3cc4c(cc3F)OCCO4)O[C@](C)(c3c[nH]c4ccccc34)C2)CNC(=O)N1
REMARK SMILES IDX 19 1 7 2 6 3 5 4 31 5 20 6 21 7 8 8 9 9 13 10 10 11 12 12
REMARK SMILES IDX 11 13 18 14 15 15 17 16 16 17 14 18 22 19 30 20 23 21 25 22
REMARK SMILES IDX 29 23 24 24 26 25 28 26 27 27 3 29 4 30 2 31 36 32 32 33
REMARK SMILES IDX 34 34 33 35 1 36 35 38
REMARK H PARENT 24 28 36 37 33 39
ROOT
ATOM      1  O   UNL     1     -22.655  -5.813 -29.343  1.00  0.00    -0.359 OA
ATOM      2  C   UNL     1     -21.309  -5.443 -29.647  1.00  0.00     0.172 C 
ATOM      3  C   UNL     1     -20.298  -6.409 -29.007  1.00  0.00     0.156 C 
ATOM      4  N   UNL     1     -20.417  -6.427 -27.545  1.00  0.00    -0.334 N 
ATOM      5  C   UNL     1     -21.681  -5.897 -27.023  1.00  0.00     0.159 C 
ATOM      6  C   UNL     1     -22.925  -6.116 -27.957  1.00  0.00     0.111 C 
ATOM      7  C   UNL     1     -23.335  -7.600 -27.927  1.00  0.00     0.050 C 
ENDROOT
BRANCH   2   8
ATOM      8  C   UNL     1     -21.167  -5.385 -31.150  1.00  0.00     0.022 A 
ATOM      9  C   UNL     1     -20.437  -6.373 -31.830  1.00  0.00     0.060 A 
ATOM     10  C   UNL     1     -21.766  -4.366 -31.903  1.00  0.00     0.133 A 
ATOM     11  C   UNL     1     -20.321  -6.334 -33.220  1.00  0.00     0.161 A 
ATOM     12  C   UNL     1     -21.643  -4.313 -33.288  1.00  0.00     0.090 A 
ATOM     13  C   UNL     1     -20.904  -5.291 -33.946  1.00  0.00     0.164 A 
ATOM     14  O   UNL     1     -19.620  -7.359 -33.809  1.00  0.00    -0.486 OA
ATOM     15  O   UNL     1     -20.803  -5.178 -35.309  1.00  0.00    -0.486 OA
ATOM     16  C   UNL     1     -19.870  -7.416 -35.218  1.00  0.00     0.271 C 
ATOM     17  C   UNL     1     -19.778  -6.031 -35.835  1.00  0.00     0.271 C 
ATOM     18  F   UNL     1     -22.492  -3.415 -31.293  1.00  0.00    -0.206 F 
ENDBRANCH   2   8
BRANCH   6  19
ATOM     19  C   UNL     1     -24.100  -5.269 -27.462  1.00  0.00     0.011 A 
ATOM     20  C   UNL     1     -24.939  -5.516 -26.315  1.00  0.00     0.006 A 
ATOM     21  C   UNL     1     -24.553  -4.079 -28.015  1.00  0.00     0.090 A 
ATOM     22  C   UNL     1     -25.883  -4.489 -26.248  1.00  0.00     0.046 A 
ATOM     23  C   UNL     1     -24.984  -6.514 -25.317  1.00  0.00     0.011 A 
ATOM     24  N   UNL     1     -25.628  -3.635 -27.292  1.00  0.00    -0.361 N 
ATOM     25  C   UNL     1     -26.870  -4.420 -25.259  1.00  0.00     0.026 A 
ATOM     26  C   UNL     1     -25.960  -6.460 -24.316  1.00  0.00     0.001 A 
ATOM     27  C   UNL     1     -26.891  -5.427 -24.289  1.00  0.00     0.002 A 
ATOM     28  H   UNL     1     -26.157  -2.796 -27.483  1.00  0.00     0.166 HD
ENDBRANCH   6  19
BRANCH   4  29
ATOM     29  C   UNL     1     -19.307  -6.828 -26.815  1.00  0.00     0.250 C 
ATOM     30  O   UNL     1     -18.955  -8.016 -26.849  1.00  0.00    -0.272 OA
BRANCH  29  31
ATOM     31  C   UNL     1     -18.588  -5.856 -25.844  1.00  0.00     0.135 C 
ATOM     32  N   UNL     1     -19.368  -5.397 -24.703  1.00  0.00    -0.322 N 
ATOM     33  C   UNL     1     -18.326  -4.518 -26.583  1.00  0.00     0.156 C 
ATOM     34  C   UNL     1     -19.257  -4.035 -24.519  1.00  0.00     0.315 C 
ATOM     35  N   UNL     1     -18.528  -3.517 -25.565  1.00  0.00    -0.335 N 
ATOM     36  C   UNL     1     -17.255  -6.463 -25.387  1.00  0.00     0.047 C 
ATOM     37  H   UNL     1     -19.745  -5.952 -23.947  1.00  0.00     0.166 HD
ATOM     38  O   UNL     1     -19.727  -3.409 -23.589  1.00  0.00    -0.249 OA
ATOM     39  H   UNL     1     -18.525  -2.516 -25.715  1.00  0.00     0.165 HD
ENDBRANCH  29  31
ENDBRANCH   4  29
TORSDOF 4
ENDMDL
MODEL 2
REMARK VINA RESULT:    -9.430      2.759      7.476
REMARK INTER + INTRA:         -12.766
REMARK INTER:                 -11.392
REMARK INTRA:                  -1.374
REMARK UNBOUND:                -1.131
REMARK SMILES C[C@]1(C(=O)N2C[C@@H](c3cc4c(cc3F)OCCO4)O[C@](C)(c3c[nH]c4ccccc34)C2)CNC(=O)N1
REMARK SMILES IDX 19 1 7 2 6 3 5 4 31 5 20 6 21 7 8 8 9 9 13 10 10 11 12 12
REMARK SMILES IDX 11 13 18 14 15 15 17 16 16 17 14 18 22 19 30 20 23 21 25 22
REMARK SMILES IDX 29 23 24 24 26 25 28 26 27 27 3 29 4 30 2 31 36 32 32 33
REMARK SMILES IDX 34 34 33 35 1 36 35 38
REMARK H PARENT 24 28 36 37 33 39
ROOT
ATOM      1  O   UNL     1     -21.668  -5.420 -28.395  1.00  0.00    -0.359 OA
ATOM      2  C   UNL     1     -21.361  -4.807 -27.142  1.00  0.00     0.172 C 
ATOM      3  C   UNL     1     -22.537  -4.913 -26.156  1.00  0.00     0.156 C 
ATOM      4  N   UNL     1     -23.739  -4.249 -26.674  1.00  0.00    -0.334 N 
ATOM      5  C   UNL     1     -23.734  -4.007 -28.120  1.00  0.00     0.159 C 
ATOM      6  C   UNL     1     -22.950  -5.073 -28.966  1.00  0.00     0.111 C 
ATOM      7  C   UNL     1     -23.755  -6.386 -29.012  1.00  0.00     0.050 C 
ENDROOT
BRANCH   2   8
ATOM      8  C   UNL     1     -20.106  -5.451 -26.601  1.00  0.00     0.022 A 
ATOM      9  C   UNL     1     -20.109  -6.805 -26.230  1.00  0.00     0.060 A 
ATOM     10  C   UNL     1     -18.911  -4.731 -26.472  1.00  0.00     0.133 A 
ATOM     11  C   UNL     1     -18.947  -7.409 -25.750  1.00  0.00     0.161 A 
ATOM     12  C   UNL     1     -17.751  -5.322 -25.980  1.00  0.00     0.090 A 
ATOM     13  C   UNL     1     -17.774  -6.661 -25.602  1.00  0.00     0.164 A 
ATOM     14  O   UNL     1     -19.028  -8.746 -25.444  1.00  0.00    -0.486 OA
ATOM     15  O   UNL     1     -16.608  -7.186 -25.110  1.00  0.00    -0.486 OA
ATOM     16  C   UNL     1     -17.725  -9.329 -25.315  1.00  0.00     0.271 C 
ATOM     17  C   UNL     1     -16.826  -8.447 -24.467  1.00  0.00     0.271 C 
ATOM     18  F   UNL     1     -18.860  -3.440 -26.837  1.00  0.00    -0.206 F 
ENDBRANCH   2   8
BRANCH   6  19
ATOM     19  C   UNL     1     -22.757  -4.562 -30.396  1.00  0.00     0.011 A 
ATOM     20  C   UNL     1     -21.878  -5.095 -31.408  1.00  0.00     0.006 A 
ATOM     21  C   UNL     1     -23.428  -3.505 -30.994  1.00  0.00     0.090 A 
ATOM     22  C   UNL     1     -22.026  -4.314 -32.555  1.00  0.00     0.046 A 
ATOM     23  C   UNL     1     -20.969  -6.175 -31.462  1.00  0.00     0.011 A 
ATOM     24  N   UNL     1     -22.968  -3.356 -32.275  1.00  0.00    -0.361 N 
ATOM     25  C   UNL     1     -21.308  -4.542 -33.735  1.00  0.00     0.026 A 
ATOM     26  C   UNL     1     -20.245  -6.423 -32.633  1.00  0.00     0.001 A 
ATOM     27  C   UNL     1     -20.412  -5.616 -33.753  1.00  0.00     0.002 A 
ATOM     28  H   UNL     1     -23.280  -2.655 -32.932  1.00  0.00     0.166 HD
ENDBRANCH   6  19
BRANCH   4  29
ATOM     29  C   UNL     1     -24.685  -3.825 -25.752  1.00  0.00     0.250 C 
ATOM     30  O   UNL     1     -24.349  -3.039 -24.855  1.00  0.00    -0.272 OA
BRANCH  29  31
ATOM     31  C   UNL     1     -26.114  -4.427 -25.732  1.00  0.00     0.135 C 
ATOM     32  N   UNL     1     -26.311  -5.638 -26.515  1.00  0.00    -0.322 N 
ATOM     33  C   UNL     1     -27.077  -3.447 -26.450  1.00  0.00     0.156 C 
ATOM     34  C   UNL     1     -27.455  -5.575 -27.280  1.00  0.00     0.315 C 
ATOM     35  N   UNL     1     -27.993  -4.315 -27.149  1.00  0.00    -0.335 N 
ATOM     36  C   UNL     1     -26.574  -4.633 -24.282  1.00  0.00     0.047 C 
ATOM     37  H   UNL     1     -25.875  -6.541 -26.381  1.00  0.00     0.166 HD
ATOM     38  O   UNL     1     -27.904  -6.483 -27.953  1.00  0.00    -0.249 OA
ATOM     39  H   UNL     1     -28.710  -4.015 -27.797  1.00  0.00     0.165 HD
ENDBRANCH  29  31
ENDBRANCH   4  29
TORSDOF 4
ENDMDL
MODEL 3
REMARK VINA RESULT:    -9.323      2.951      4.137
REMARK INTER + INTRA:         -12.634
REMARK INTER:                 -11.754
REMARK INTRA:                  -0.880
REMARK UNBOUND:                -1.131
REMARK SMILES C[C@]1(C(=O)N2C[C@@H](c3cc4c(cc3F)OCCO4)O[C@](C)(c3c[nH]c4ccccc34)C2)CNC(=O)N1
REMARK SMILES IDX 19 1 7 2 6 3 5 4 31 5 20 6 21 7 8 8 9 9 13 10 10 11 12 12
REMARK SMILES IDX 11 13 18 14 15 15 17 16 16 17 14 18 22 19 30 20 23 21 25 22
REMARK SMILES IDX 29 23 24 24 26 25 28 26 27 27 3 29 4 30 2 31 36 32 32 33
REMARK SMILES IDX 34 34 33 35 1 36 35 38
REMARK H PARENT 24 28 36 37 33 39
ROOT
ATOM      1  O   UNL     1     -21.242  -6.398 -30.938  1.00  0.00    -0.359 OA
ATOM      2  C   UNL     1     -19.935  -6.880 -31.252  1.00  0.00     0.172 C 
ATOM      3  C   UNL     1     -19.414  -7.849 -30.177  1.00  0.00     0.156 C 
ATOM      4  N   UNL     1     -19.326  -7.202 -28.863  1.00  0.00    -0.334 N 
ATOM      5  C   UNL     1     -20.111  -5.971 -28.728  1.00  0.00     0.159 C 
ATOM      6  C   UNL     1     -21.429  -5.931 -29.583  1.00  0.00     0.111 C 
ATOM      7  C   UNL     1     -22.475  -6.873 -28.958  1.00  0.00     0.050 C 
ENDROOT
BRANCH   2   8
ATOM      8  C   UNL     1     -19.990  -7.524 -32.618  1.00  0.00     0.022 A 
ATOM      9  C   UNL     1     -19.917  -8.920 -32.746  1.00  0.00     0.060 A 
ATOM     10  C   UNL     1     -20.130  -6.758 -33.783  1.00  0.00     0.133 A 
ATOM     11  C   UNL     1     -19.988  -9.520 -34.004  1.00  0.00     0.161 A 
ATOM     12  C   UNL     1     -20.188  -7.347 -35.043  1.00  0.00     0.090 A 
ATOM     13  C   UNL     1     -20.100  -8.732 -35.154  1.00  0.00     0.164 A 
ATOM     14  O   UNL     1     -19.947 -10.892 -34.036  1.00  0.00    -0.486 OA
ATOM     15  O   UNL     1     -20.145  -9.255 -36.419  1.00  0.00    -0.486 OA
ATOM     16  C   UNL     1     -20.384 -11.396 -35.304  1.00  0.00     0.271 C 
ATOM     17  C   UNL     1     -19.731 -10.626 -36.439  1.00  0.00     0.271 C 
ATOM     18  F   UNL     1     -20.226  -5.421 -33.703  1.00  0.00    -0.206 F 
ENDBRANCH   2   8
BRANCH   6  19
ATOM     19  C   UNL     1     -21.993  -4.508 -29.600  1.00  0.00     0.011 A 
ATOM     20  C   UNL     1     -22.643  -3.834 -30.698  1.00  0.00     0.006 A 
ATOM     21  C   UNL     1     -22.015  -3.613 -28.540  1.00  0.00     0.090 A 
ATOM     22  C   UNL     1     -22.990  -2.553 -30.267  1.00  0.00     0.046 A 
ATOM     23  C   UNL     1     -22.977  -4.194 -32.023  1.00  0.00     0.011 A 
ATOM     24  N   UNL     1     -22.594  -2.445 -28.957  1.00  0.00    -0.361 N 
ATOM     25  C   UNL     1     -23.630  -1.616 -31.086  1.00  0.00     0.026 A 
ATOM     26  C   UNL     1     -23.621  -3.273 -32.857  1.00  0.00     0.001 A 
ATOM     27  C   UNL     1     -23.941  -2.001 -32.394  1.00  0.00     0.002 A 
ATOM     28  H   UNL     1     -22.728  -1.621 -28.388  1.00  0.00     0.166 HD
ENDBRANCH   6  19
BRANCH   4  29
ATOM     29  C   UNL     1     -18.443  -7.743 -27.939  1.00  0.00     0.250 C 
ATOM     30  O   UNL     1     -17.767  -8.733 -28.253  1.00  0.00    -0.272 OA
BRANCH  29  31
ATOM     31  C   UNL     1     -18.393  -7.227 -26.477  1.00  0.00     0.135 C 
ATOM     32  N   UNL     1     -18.128  -5.805 -26.308  1.00  0.00    -0.322 N 
ATOM     33  C   UNL     1     -17.158  -7.846 -25.773  1.00  0.00     0.156 C 
ATOM     34  C   UNL     1     -17.174  -5.572 -25.341  1.00  0.00     0.315 C 
ATOM     35  N   UNL     1     -16.680  -6.785 -24.921  1.00  0.00    -0.335 N 
ATOM     36  C   UNL     1     -19.671  -7.637 -25.734  1.00  0.00     0.047 C 
ATOM     37  H   UNL     1     -18.696  -5.028 -26.616  1.00  0.00     0.166 HD
ATOM     38  O   UNL     1     -16.835  -4.477 -24.935  1.00  0.00    -0.249 OA
ATOM     39  H   UNL     1     -15.829  -6.809 -24.374  1.00  0.00     0.165 HD
ENDBRANCH  29  31
ENDBRANCH   4  29
TORSDOF 4
ENDMDL
MODEL 4
REMARK VINA RESULT:    -9.279      2.730      7.432
REMARK INTER + INTRA:         -12.579
REMARK INTER:                 -11.400
REMARK INTRA:                  -1.179
REMARK UNBOUND:                -1.131
REMARK SMILES C[C@]1(C(=O)N2C[C@@H](c3cc4c(cc3F)OCCO4)O[C@](C)(c3c[nH]c4ccccc34)C2)CNC(=O)N1
REMARK SMILES IDX 19 1 7 2 6 3 5 4 31 5 20 6 21 7 8 8 9 9 13 10 10 11 12 12
REMARK SMILES IDX 11 13 18 14 15 15 17 16 16 17 14 18 22 19 30 20 23 21 25 22
REMARK SMILES IDX 29 23 24 24 26 25 28 26 27 27 3 29 4 30 2 31 36 32 32 33
REMARK SMILES IDX 34 34 33 35 1 36 35 38
REMARK H PARENT 24 28 36 37 33 39
ROOT
ATOM      1  O   UNL     1     -21.648  -5.396 -28.387  1.00  0.00    -0.359 OA
ATOM      2  C   UNL     1     -21.342  -4.775 -27.138  1.00  0.00     0.172 C 
ATOM      3  C   UNL     1     -22.520  -4.873 -26.154  1.00  0.00     0.156 C 
ATOM      4  N   UNL     1     -23.720  -4.211 -26.678  1.00  0.00    -0.334 N 
ATOM      5  C   UNL     1     -23.713  -3.979 -28.125  1.00  0.00     0.159 C 
ATOM      6  C   UNL     1     -22.928  -5.051 -28.963  1.00  0.00     0.111 C 
ATOM      7  C   UNL     1     -23.734  -6.363 -29.002  1.00  0.00     0.050 C 
ENDROOT
BRANCH   2   8
ATOM      8  C   UNL     1     -20.089  -5.417 -26.590  1.00  0.00     0.022 A 
ATOM      9  C   UNL     1     -20.093  -6.771 -26.218  1.00  0.00     0.060 A 
ATOM     10  C   UNL     1     -18.896  -4.696 -26.456  1.00  0.00     0.133 A 
ATOM     11  C   UNL     1     -18.932  -7.374 -25.731  1.00  0.00     0.161 A 
ATOM     12  C   UNL     1     -17.737  -5.286 -25.958  1.00  0.00     0.090 A 
ATOM     13  C   UNL     1     -17.761  -6.625 -25.579  1.00  0.00     0.164 A 
ATOM     14  O   UNL     1     -19.014  -8.710 -25.425  1.00  0.00    -0.486 OA
ATOM     15  O   UNL     1     -16.597  -7.148 -25.081  1.00  0.00    -0.486 OA
ATOM     16  C   UNL     1     -17.712  -9.292 -25.288  1.00  0.00     0.271 C 
ATOM     17  C   UNL     1     -16.817  -8.408 -24.437  1.00  0.00     0.271 C 
ATOM     18  F   UNL     1     -18.844  -3.405 -26.822  1.00  0.00    -0.206 F 
ENDBRANCH   2   8
BRANCH   6  19
ATOM     19  C   UNL     1     -22.732  -4.550 -30.396  1.00  0.00     0.011 A 
ATOM     20  C   UNL     1     -21.860  -5.098 -31.406  1.00  0.00     0.006 A 
ATOM     21  C   UNL     1     -23.392  -3.488 -30.998  1.00  0.00     0.090 A 
ATOM     22  C   UNL     1     -22.001  -4.320 -32.558  1.00  0.00     0.046 A 
ATOM     23  C   UNL     1     -20.964  -6.188 -31.456  1.00  0.00     0.011 A 
ATOM     24  N   UNL     1     -22.932  -3.351 -32.281  1.00  0.00    -0.361 N 
ATOM     25  C   UNL     1     -21.288  -4.563 -33.737  1.00  0.00     0.026 A 
ATOM     26  C   UNL     1     -20.245  -6.450 -32.627  1.00  0.00     0.001 A 
ATOM     27  C   UNL     1     -20.405  -5.647 -33.751  1.00  0.00     0.002 A 
ATOM     28  H   UNL     1     -23.236  -2.649 -32.941  1.00  0.00     0.166 HD
ENDBRANCH   6  19
BRANCH   4  29
ATOM     29  C   UNL     1     -24.668  -3.779 -25.760  1.00  0.00     0.250 C 
ATOM     30  O   UNL     1     -24.312  -3.069 -24.809  1.00  0.00    -0.272 OA
BRANCH  29  31
ATOM     31  C   UNL     1     -26.132  -4.287 -25.818  1.00  0.00     0.135 C 
ATOM     32  N   UNL     1     -26.888  -4.205 -24.576  1.00  0.00    -0.322 N 
ATOM     33  C   UNL     1     -26.118  -5.819 -26.057  1.00  0.00     0.156 C 
ATOM     34  C   UNL     1     -27.574  -5.371 -24.314  1.00  0.00     0.315 C 
ATOM     35  N   UNL     1     -27.223  -6.301 -25.265  1.00  0.00    -0.335 N 
ATOM     36  C   UNL     1     -26.882  -3.592 -26.962  1.00  0.00     0.047 C 
ATOM     37  H   UNL     1     -27.144  -3.374 -24.060  1.00  0.00     0.166 HD
ATOM     38  O   UNL     1     -28.354  -5.539 -23.397  1.00  0.00    -0.249 OA
ATOM     39  H   UNL     1     -27.459  -7.274 -25.115  1.00  0.00     0.165 HD
ENDBRANCH  29  31
ENDBRANCH   4  29
TORSDOF 4
ENDMDL
MODEL 5
REMARK VINA RESULT:    -9.177      2.199      5.728
REMARK INTER + INTRA:         -12.454
REMARK INTER:                 -11.059
REMARK INTRA:                  -1.395
REMARK UNBOUND:                -1.131
REMARK SMILES C[C@]1(C(=O)N2C[C@@H](c3cc4c(cc3F)OCCO4)O[C@](C)(c3c[nH]c4ccccc34)C2)CNC(=O)N1
REMARK SMILES IDX 19 1 7 2 6 3 5 4 31 5 20 6 21 7 8 8 9 9 13 10 10 11 12 12
REMARK SMILES IDX 11 13 18 14 15 15 17 16 16 17 14 18 22 19 30 20 23 21 25 22
REMARK SMILES IDX 29 23 24 24 26 25 28 26 27 27 3 29 4 30 2 31 36 32 32 33
REMARK SMILES IDX 34 34 33 35 1 36 35 38
REMARK H PARENT 24 28 36 37 33 39
ROOT
ATOM      1  O   UNL     1     -19.604  -5.962 -28.514  1.00  0.00    -0.359 OA
ATOM      2  C   UNL     1     -20.670  -6.746 -29.051  1.00  0.00     0.172 C 
ATOM      3  C   UNL     1     -22.043  -6.140 -28.715  1.00  0.00     0.156 C 
ATOM      4  N   UNL     1     -22.260  -6.060 -27.266  1.00  0.00    -0.334 N 
ATOM      5  C   UNL     1     -21.042  -6.152 -26.455  1.00  0.00     0.159 C 
ATOM      6  C   UNL     1     -19.751  -5.565 -27.132  1.00  0.00     0.111 C 
ATOM      7  C   UNL     1     -19.834  -4.027 -27.147  1.00  0.00     0.050 C 
ENDROOT
BRANCH   2   8
ATOM      8  C   UNL     1     -20.453  -6.872 -30.541  1.00  0.00     0.022 A 
ATOM      9  C   UNL     1     -20.786  -5.810 -31.397  1.00  0.00     0.060 A 
ATOM     10  C   UNL     1     -19.905  -8.032 -31.105  1.00  0.00     0.133 A 
ATOM     11  C   UNL     1     -20.568  -5.914 -32.771  1.00  0.00     0.161 A 
ATOM     12  C   UNL     1     -19.698  -8.149 -32.476  1.00  0.00     0.090 A 
ATOM     13  C   UNL     1     -20.046  -7.093 -33.313  1.00  0.00     0.164 A 
ATOM     14  O   UNL     1     -20.887  -4.815 -33.531  1.00  0.00    -0.486 OA
ATOM     15  O   UNL     1     -19.835  -7.272 -34.655  1.00  0.00    -0.486 OA
ATOM     16  C   UNL     1     -20.298  -4.897 -34.834  1.00  0.00     0.271 C 
ATOM     17  C   UNL     1     -20.511  -6.276 -35.433  1.00  0.00     0.271 C 
ATOM     18  F   UNL     1     -19.552  -9.062 -30.319  1.00  0.00    -0.206 F 
ENDBRANCH   2   8
BRANCH   6  19
ATOM     19  C   UNL     1     -18.512  -5.985 -26.339  1.00  0.00     0.011 A 
ATOM     20  C   UNL     1     -18.024  -7.324 -26.115  1.00  0.00     0.006 A 
ATOM     21  C   UNL     1     -17.603  -5.141 -25.715  1.00  0.00     0.090 A 
ATOM     22  C   UNL     1     -16.870  -7.233 -25.335  1.00  0.00     0.046 A 
ATOM     23  C   UNL     1     -18.451  -8.612 -26.507  1.00  0.00     0.011 A 
ATOM     24  N   UNL     1     -16.640  -5.900 -25.105  1.00  0.00    -0.361 N 
ATOM     25  C   UNL     1     -16.139  -8.351 -24.916  1.00  0.00     0.026 A 
ATOM     26  C   UNL     1     -17.732  -9.742 -26.103  1.00  0.00     0.001 A 
ATOM     27  C   UNL     1     -16.592  -9.611 -25.316  1.00  0.00     0.002 A 
ATOM     28  H   UNL     1     -15.862  -5.540 -24.570  1.00  0.00     0.166 HD
ENDBRANCH   6  19
BRANCH   4  29
ATOM     29  C   UNL     1     -23.571  -6.020 -26.814  1.00  0.00     0.250 C 
ATOM     30  O   UNL     1     -24.254  -7.054 -26.839  1.00  0.00    -0.272 OA
BRANCH  29  31
ATOM     31  C   UNL     1     -24.245  -4.680 -26.419  1.00  0.00     0.135 C 
ATOM     32  N   UNL     1     -23.444  -3.776 -25.605  1.00  0.00    -0.322 N 
ATOM     33  C   UNL     1     -25.424  -4.981 -25.457  1.00  0.00     0.156 C 
ATOM     34  C   UNL     1     -24.162  -3.269 -24.543  1.00  0.00     0.315 C 
ATOM     35  N   UNL     1     -25.392  -3.885 -24.520  1.00  0.00    -0.335 N 
ATOM     36  C   UNL     1     -24.770  -3.968 -27.673  1.00  0.00     0.047 C 
ATOM     37  H   UNL     1     -22.576  -3.323 -25.855  1.00  0.00     0.166 HD
ATOM     38  O   UNL     1     -23.766  -2.423 -23.765  1.00  0.00    -0.249 OA
ATOM     39  H   UNL     1     -25.971  -3.800 -23.695  1.00  0.00     0.165 HD
ENDBRANCH  29  31
ENDBRANCH   4  29
TORSDOF 4
ENDMDL
MODEL 6
REMARK VINA RESULT:    -9.031      2.227      6.123
REMARK INTER + INTRA:         -12.274
REMARK INTER:                 -10.938
REMARK INTRA:                  -1.336
REMARK UNBOUND:                -1.131
REMARK SMILES C[C@]1(C(=O)N2C[C@@H](c3cc4c(cc3F)OCCO4)O[C@](C)(c3c[nH]c4ccccc34)C2)CNC(=O)N1
REMARK SMILES IDX 19 1 7 2 6 3 5 4 31 5 20 6 21 7 8 8 9 9 13 10 10 11 12 12
REMARK SMILES IDX 11 13 18 14 15 15 17 16 16 17 14 18 22 19 30 20 23 21 25 22
REMARK SMILES IDX 29 23 24 24 26 25 28 26 27 27 3 29 4 30 2 31 36 32 32 33
REMARK SMILES IDX 34 34 33 35 1 36 35 38
REMARK H PARENT 24 28 36 37 33 39
ROOT
ATOM      1  O   UNL     1     -19.487  -5.768 -28.606  1.00  0.00    -0.359 OA
ATOM      2  C   UNL     1     -20.668  -6.369 -29.138  1.00  0.00     0.172 C 
ATOM      3  C   UNL     1     -21.917  -5.521 -28.845  1.00  0.00     0.156 C 
ATOM      4  N   UNL     1     -22.134  -5.355 -27.404  1.00  0.00    -0.334 N 
ATOM      5  C   UNL     1     -20.961  -5.633 -26.569  1.00  0.00     0.159 C 
ATOM      6  C   UNL     1     -19.579  -5.305 -27.240  1.00  0.00     0.111 C 
ATOM      7  C   UNL     1     -19.389  -3.778 -27.303  1.00  0.00     0.050 C 
ENDROOT
BRANCH   2   8
ATOM      8  C   UNL     1     -20.459  -6.582 -30.619  1.00  0.00     0.022 A 
ATOM      9  C   UNL     1     -20.753  -5.554 -31.529  1.00  0.00     0.060 A 
ATOM     10  C   UNL     1     -19.955  -7.789 -31.121  1.00  0.00     0.133 A 
ATOM     11  C   UNL     1     -20.541  -5.738 -32.896  1.00  0.00     0.161 A 
ATOM     12  C   UNL     1     -19.755  -7.986 -32.485  1.00  0.00     0.090 A 
ATOM     13  C   UNL     1     -20.065  -6.962 -33.376  1.00  0.00     0.164 A 
ATOM     14  O   UNL     1     -20.820  -4.669 -33.713  1.00  0.00    -0.486 OA
ATOM     15  O   UNL     1     -19.863  -7.218 -34.707  1.00  0.00    -0.486 OA
ATOM     16  C   UNL     1     -20.237  -4.841 -35.010  1.00  0.00     0.271 C 
ATOM     17  C   UNL     1     -20.503  -6.241 -35.536  1.00  0.00     0.271 C 
ATOM     18  F   UNL     1     -19.640  -8.789 -30.283  1.00  0.00    -0.206 F 
ENDBRANCH   2   8
BRANCH   6  19
ATOM     19  C   UNL     1     -18.443  -5.911 -26.411  1.00  0.00     0.011 A 
ATOM     20  C   UNL     1     -18.109  -7.306 -26.267  1.00  0.00     0.006 A 
ATOM     21  C   UNL     1     -17.497  -5.215 -25.671  1.00  0.00     0.090 A 
ATOM     22  C   UNL     1     -17.005  -7.395 -25.416  1.00  0.00     0.046 A 
ATOM     23  C   UNL     1     -18.637  -8.510 -26.784  1.00  0.00     0.011 A 
ATOM     24  N   UNL     1     -16.658  -6.113 -25.068  1.00  0.00    -0.361 N 
ATOM     25  C   UNL     1     -16.419  -8.610 -25.046  1.00  0.00     0.026 A 
ATOM     26  C   UNL     1     -18.062  -9.736 -26.430  1.00  0.00     0.001 A 
ATOM     27  C   UNL     1     -16.970  -9.783 -25.570  1.00  0.00     0.002 A 
ATOM     28  H   UNL     1     -15.885  -5.877 -24.462  1.00  0.00     0.166 HD
ENDBRANCH   6  19
BRANCH   4  29
ATOM     29  C   UNL     1     -23.423  -5.070 -26.977  1.00  0.00     0.250 C 
ATOM     30  O   UNL     1     -23.667  -3.962 -26.479  1.00  0.00    -0.272 OA
BRANCH  29  31
ATOM     31  C   UNL     1     -24.529  -6.158 -26.975  1.00  0.00     0.135 C 
ATOM     32  N   UNL     1     -24.690  -6.911 -28.211  1.00  0.00    -0.322 N 
ATOM     33  C   UNL     1     -25.911  -5.464 -26.867  1.00  0.00     0.156 C 
ATOM     34  C   UNL     1     -26.014  -7.020 -28.577  1.00  0.00     0.315 C 
ATOM     35  N   UNL     1     -26.766  -6.267 -27.705  1.00  0.00    -0.335 N 
ATOM     36  C   UNL     1     -24.330  -7.102 -25.782  1.00  0.00     0.047 C 
ATOM     37  H   UNL     1     -24.019  -7.522 -28.656  1.00  0.00     0.166 HD
ATOM     38  O   UNL     1     -26.435  -7.674 -29.511  1.00  0.00    -0.249 OA
ATOM     39  H   UNL     1     -27.727  -6.054 -27.940  1.00  0.00     0.165 HD
ENDBRANCH  29  31
ENDBRANCH   4  29
TORSDOF 4
ENDMDL
MODEL 7
REMARK VINA RESULT:    -9.014      2.304      6.871
REMARK INTER + INTRA:         -12.252
REMARK INTER:                 -11.336
REMARK INTRA:                  -0.916
REMARK UNBOUND:                -1.131
REMARK SMILES C[C@]1(C(=O)N2C[C@@H](c3cc4c(cc3F)OCCO4)O[C@](C)(c3c[nH]c4ccccc34)C2)CNC(=O)N1
REMARK SMILES IDX 19 1 7 2 6 3 5 4 31 5 20 6 21 7 8 8 9 9 13 10 10 11 12 12
REMARK SMILES IDX 11 13 18 14 15 15 17 16 16 17 14 18 22 19 30 20 23 21 25 22
REMARK SMILES IDX 29 23 24 24 26 25 28 26 27 27 3 29 4 30 2 31 36 32 32 33
REMARK SMILES IDX 34 34 33 35 1 36 35 38
REMARK H PARENT 24 28 36 37 33 39
ROOT
ATOM      1  O   UNL     1     -22.018  -6.418 -29.635  1.00  0.00    -0.359 OA
ATOM      2  C   UNL     1     -22.445  -7.075 -28.441  1.00  0.00     0.172 C 
ATOM      3  C   UNL     1     -21.571  -6.685 -27.237  1.00  0.00     0.156 C 
ATOM      4  N   UNL     1     -20.166  -7.051 -27.447  1.00  0.00    -0.334 N 
ATOM      5  C   UNL     1     -19.797  -7.301 -28.843  1.00  0.00     0.159 C 
ATOM      6  C   UNL     1     -20.598  -6.458 -29.899  1.00  0.00     0.111 C 
ATOM      7  C   UNL     1     -20.124  -4.993 -29.854  1.00  0.00     0.050 C 
ENDROOT
BRANCH   2   8
ATOM      8  C   UNL     1     -23.902  -6.740 -28.219  1.00  0.00     0.022 A 
ATOM      9  C   UNL     1     -24.262  -5.552 -27.564  1.00  0.00     0.060 A 
ATOM     10  C   UNL     1     -24.924  -7.586 -28.668  1.00  0.00     0.133 A 
ATOM     11  C   UNL     1     -25.607  -5.229 -27.374  1.00  0.00     0.161 A 
ATOM     12  C   UNL     1     -26.267  -7.279 -28.470  1.00  0.00     0.090 A 
ATOM     13  C   UNL     1     -26.608  -6.104 -27.807  1.00  0.00     0.164 A 
ATOM     14  O   UNL     1     -25.872  -4.030 -26.758  1.00  0.00    -0.486 OA
ATOM     15  O   UNL     1     -27.945  -5.861 -27.627  1.00  0.00    -0.486 OA
ATOM     16  C   UNL     1     -27.239  -3.644 -26.941  1.00  0.00     0.271 C 
ATOM     17  C   UNL     1     -28.168  -4.815 -26.673  1.00  0.00     0.271 C 
ATOM     18  F   UNL     1     -24.622  -8.721 -29.319  1.00  0.00    -0.206 F 
ENDBRANCH   2   8
BRANCH   6  19
ATOM     19  C   UNL     1     -20.349  -7.013 -31.304  1.00  0.00     0.011 A 
ATOM     20  C   UNL     1     -20.487  -6.318 -32.561  1.00  0.00     0.006 A 
ATOM     21  C   UNL     1     -19.906  -8.289 -31.623  1.00  0.00     0.090 A 
ATOM     22  C   UNL     1     -20.162  -7.214 -33.581  1.00  0.00     0.046 A 
ATOM     23  C   UNL     1     -20.854  -5.005 -32.931  1.00  0.00     0.011 A 
ATOM     24  N   UNL     1     -19.817  -8.401 -32.985  1.00  0.00    -0.361 N 
ATOM     25  C   UNL     1     -20.201  -6.874 -34.938  1.00  0.00     0.026 A 
ATOM     26  C   UNL     1     -20.894  -4.645 -34.283  1.00  0.00     0.001 A 
ATOM     27  C   UNL     1     -20.574  -5.569 -35.272  1.00  0.00     0.002 A 
ATOM     28  H   UNL     1     -19.529  -9.228 -33.488  1.00  0.00     0.166 HD
ENDBRANCH   6  19
BRANCH   4  29
ATOM     29  C   UNL     1     -19.375  -7.232 -26.321  1.00  0.00     0.250 C 
ATOM     30  O   UNL     1     -19.365  -8.334 -25.756  1.00  0.00    -0.272 OA
BRANCH  29  31
ATOM     31  C   UNL     1     -18.618  -6.044 -25.671  1.00  0.00     0.135 C 
ATOM     32  N   UNL     1     -19.258  -5.431 -24.516  1.00  0.00    -0.322 N 
ATOM     33  C   UNL     1     -18.605  -4.856 -26.669  1.00  0.00     0.156 C 
ATOM     34  C   UNL     1     -19.257  -4.055 -24.597  1.00  0.00     0.315 C 
ATOM     35  N   UNL     1     -18.750  -3.696 -25.825  1.00  0.00    -0.335 N 
ATOM     36  C   UNL     1     -17.177  -6.458 -25.343  1.00  0.00     0.047 C 
ATOM     37  H   UNL     1     -19.460  -5.857 -23.621  1.00  0.00     0.166 HD
ATOM     38  O   UNL     1     -19.641  -3.298 -23.727  1.00  0.00    -0.249 OA
ATOM     39  H   UNL     1     -18.869  -2.745 -26.148  1.00  0.00     0.165 HD
ENDBRANCH  29  31
ENDBRANCH   4  29
TORSDOF 4
ENDMDL
MODEL 8
REMARK VINA RESULT:    -8.995      1.840      5.634
REMARK INTER + INTRA:         -12.230
REMARK INTER:                 -11.332
REMARK INTRA:                  -0.897
REMARK UNBOUND:                -1.131
REMARK SMILES C[C@]1(C(=O)N2C[C@@H](c3cc4c(cc3F)OCCO4)O[C@](C)(c3c[nH]c4ccccc34)C2)CNC(=O)N1
REMARK SMILES IDX 19 1 7 2 6 3 5 4 31 5 20 6 21 7 8 8 9 9 13 10 10 11 12 12
REMARK SMILES IDX 11 13 18 14 15 15 17 16 16 17 14 18 22 19 30 20 23 21 25 22
REMARK SMILES IDX 29 23 24 24 26 25 28 26 27 27 3 29 4 30 2 31 36 32 32 33
REMARK SMILES IDX 34 34 33 35 1 36 35 38
REMARK H PARENT 24 28 36 37 33 39
ROOT
ATOM      1  O   UNL     1     -21.191  -4.974 -28.809  1.00  0.00    -0.359 OA
ATOM      2  C   UNL     1     -22.003  -5.804 -29.639  1.00  0.00     0.172 C 
ATOM      3  C   UNL     1     -23.501  -5.589 -29.364  1.00  0.00     0.156 C 
ATOM      4  N   UNL     1     -23.848  -5.906 -27.974  1.00  0.00    -0.334 N 
ATOM      5  C   UNL     1     -22.710  -5.941 -27.049  1.00  0.00     0.159 C 
ATOM      6  C   UNL     1     -21.538  -4.959 -27.406  1.00  0.00     0.111 C 
ATOM      7  C   UNL     1     -21.967  -3.512 -27.097  1.00  0.00     0.050 C 
ENDROOT
BRANCH   2   8
ATOM      8  C   UNL     1     -21.643  -5.522 -31.079  1.00  0.00     0.022 A 
ATOM      9  C   UNL     1     -20.717  -6.337 -31.749  1.00  0.00     0.060 A 
ATOM     10  C   UNL     1     -22.227  -4.462 -31.785  1.00  0.00     0.133 A 
ATOM     11  C   UNL     1     -20.396  -6.092 -33.085  1.00  0.00     0.161 A 
ATOM     12  C   UNL     1     -21.902  -4.202 -33.114  1.00  0.00     0.090 A 
ATOM     13  C   UNL     1     -20.971  -5.010 -33.760  1.00  0.00     0.164 A 
ATOM     14  O   UNL     1     -19.509  -6.959 -33.675  1.00  0.00    -0.486 OA
ATOM     15  O   UNL     1     -20.678  -4.698 -35.062  1.00  0.00    -0.486 OA
ATOM     16  C   UNL     1     -19.535  -6.837 -35.103  1.00  0.00     0.271 C 
ATOM     17  C   UNL     1     -19.501  -5.376 -35.516  1.00  0.00     0.271 C 
ATOM     18  F   UNL     1     -23.134  -3.673 -31.188  1.00  0.00    -0.206 F 
ENDBRANCH   2   8
BRANCH   6  19
ATOM     19  C   UNL     1     -20.303  -5.297 -26.566  1.00  0.00     0.011 A 
ATOM     20  C   UNL     1     -19.411  -6.420 -26.727  1.00  0.00     0.006 A 
ATOM     21  C   UNL     1     -19.793  -4.556 -25.508  1.00  0.00     0.090 A 
ATOM     22  C   UNL     1     -18.430  -6.330 -25.739  1.00  0.00     0.046 A 
ATOM     23  C   UNL     1     -19.340  -7.506 -27.627  1.00  0.00     0.011 A 
ATOM     24  N   UNL     1     -18.688  -5.194 -25.013  1.00  0.00    -0.361 N 
ATOM     25  C   UNL     1     -17.403  -7.269 -25.593  1.00  0.00     0.026 A 
ATOM     26  C   UNL     1     -18.318  -8.454 -27.501  1.00  0.00     0.001 A 
ATOM     27  C   UNL     1     -17.364  -8.336 -26.495  1.00  0.00     0.002 A 
ATOM     28  H   UNL     1     -18.128  -4.877 -24.234  1.00  0.00     0.166 HD
ENDBRANCH   6  19
BRANCH   4  29
ATOM     29  C   UNL     1     -25.166  -6.243 -27.702  1.00  0.00     0.250 C 
ATOM     30  O   UNL     1     -25.712  -7.138 -28.361  1.00  0.00    -0.272 OA
BRANCH  29  31
ATOM     31  C   UNL     1     -26.013  -5.424 -26.693  1.00  0.00     0.135 C 
ATOM     32  N   UNL     1     -27.437  -5.327 -26.982  1.00  0.00    -0.322 N 
ATOM     33  C   UNL     1     -25.589  -3.935 -26.780  1.00  0.00     0.156 C 
ATOM     34  C   UNL     1     -27.900  -4.035 -26.851  1.00  0.00     0.315 C 
ATOM     35  N   UNL     1     -26.825  -3.214 -26.602  1.00  0.00    -0.335 N 
ATOM     36  C   UNL     1     -25.779  -5.946 -25.269  1.00  0.00     0.047 C 
ATOM     37  H   UNL     1     -28.114  -6.077 -27.020  1.00  0.00     0.166 HD
ATOM     38  O   UNL     1     -29.063  -3.692 -26.942  1.00  0.00    -0.249 OA
ATOM     39  H   UNL     1     -26.939  -2.213 -26.687  1.00  0.00     0.165 HD
ENDBRANCH  29  31
ENDBRANCH   4  29
TORSDOF 4
ENDMDL
MODEL 9
REMARK VINA RESULT:    -8.912      2.478      6.920
REMARK INTER + INTRA:         -12.126
REMARK INTER:                 -11.555
REMARK INTRA:                  -0.571
REMARK UNBOUND:                -1.131
REMARK SMILES C[C@]1(C(=O)N2C[C@@H](c3cc4c(cc3F)OCCO4)O[C@](C)(c3c[nH]c4ccccc34)C2)CNC(=O)N1
REMARK SMILES IDX 19 1 7 2 6 3 5 4 31 5 20 6 21 7 8 8 9 9 13 10 10 11 12 12
REMARK SMILES IDX 11 13 18 14 15 15 17 16 16 17 14 18 22 19 30 20 23 21 25 22
REMARK SMILES IDX 29 23 24 24 26 25 28 26 27 27 3 29 4 30 2 31 36 32 32 33
REMARK SMILES IDX 34 34 33 35 1 36 35 38
REMARK H PARENT 24 28 36 37 33 39
ROOT
ATOM      1  O   UNL     1     -23.418  -4.656 -28.781  1.00  0.00    -0.359 OA
ATOM      2  C   UNL     1     -23.639  -5.806 -27.962  1.00  0.00     0.172 C 
ATOM      3  C   UNL     1     -22.519  -5.985 -26.923  1.00  0.00     0.156 C 
ATOM      4  N   UNL     1     -21.210  -6.161 -27.562  1.00  0.00    -0.334 N 
ATOM      5  C   UNL     1     -21.144  -5.722 -28.960  1.00  0.00     0.159 C 
ATOM      6  C   UNL     1     -22.085  -4.517 -29.320  1.00  0.00     0.111 C 
ATOM      7  C   UNL     1     -21.520  -3.222 -28.705  1.00  0.00     0.050 C 
ENDROOT
BRANCH   2   8
ATOM      8  C   UNL     1     -24.998  -5.666 -27.316  1.00  0.00     0.022 A 
ATOM      9  C   UNL     1     -25.990  -6.634 -27.541  1.00  0.00     0.060 A 
ATOM     10  C   UNL     1     -25.299  -4.591 -26.471  1.00  0.00     0.133 A 
ATOM     11  C   UNL     1     -27.240  -6.520 -26.931  1.00  0.00     0.161 A 
ATOM     12  C   UNL     1     -26.548  -4.462 -25.869  1.00  0.00     0.090 A 
ATOM     13  C   UNL     1     -27.526  -5.422 -26.113  1.00  0.00     0.164 A 
ATOM     14  O   UNL     1     -28.140  -7.528 -27.175  1.00  0.00    -0.486 OA
ATOM     15  O   UNL     1     -28.741  -5.235 -25.507  1.00  0.00    -0.486 OA
ATOM     16  C   UNL     1     -29.221  -7.499 -26.236  1.00  0.00     0.271 C 
ATOM     17  C   UNL     1     -29.748  -6.084 -26.071  1.00  0.00     0.271 C 
ATOM     18  F   UNL     1     -24.371  -3.656 -26.211  1.00  0.00    -0.206 F 
ENDBRANCH   2   8
BRANCH   6  19
ATOM     19  C   UNL     1     -22.157  -4.350 -30.840  1.00  0.00     0.011 A 
ATOM     20  C   UNL     1     -21.435  -5.098 -31.840  1.00  0.00     0.006 A 
ATOM     21  C   UNL     1     -22.967  -3.465 -31.538  1.00  0.00     0.090 A 
ATOM     22  C   UNL     1     -21.809  -4.605 -33.092  1.00  0.00     0.046 A 
ATOM     23  C   UNL     1     -20.500  -6.155 -31.803  1.00  0.00     0.011 A 
ATOM     24  N   UNL     1     -22.734  -3.615 -32.879  1.00  0.00    -0.361 N 
ATOM     25  C   UNL     1     -21.288  -5.097 -34.294  1.00  0.00     0.026 A 
ATOM     26  C   UNL     1     -19.971  -6.664 -32.995  1.00  0.00     0.001 A 
ATOM     27  C   UNL     1     -20.360  -6.140 -34.223  1.00  0.00     0.002 A 
ATOM     28  H   UNL     1     -23.183  -3.086 -33.614  1.00  0.00     0.166 HD
ENDBRANCH   6  19
BRANCH   4  29
ATOM     29  C   UNL     1     -20.224  -6.811 -26.836  1.00  0.00     0.250 C 
ATOM     30  O   UNL     1     -20.198  -8.050 -26.820  1.00  0.00    -0.272 OA
BRANCH  29  31
ATOM     31  C   UNL     1     -19.244  -6.024 -25.926  1.00  0.00     0.135 C 
ATOM     32  N   UNL     1     -19.832  -5.370 -24.765  1.00  0.00    -0.322 N 
ATOM     33  C   UNL     1     -18.704  -4.804 -26.714  1.00  0.00     0.156 C 
ATOM     34  C   UNL     1     -19.387  -4.073 -24.627  1.00  0.00     0.315 C 
ATOM     35  N   UNL     1     -18.607  -3.765 -25.718  1.00  0.00    -0.335 N 
ATOM     36  C   UNL     1     -18.076  -6.929 -25.510  1.00  0.00     0.047 C 
ATOM     37  H   UNL     1     -20.294  -5.804 -23.978  1.00  0.00     0.166 HD
ATOM     38  O   UNL     1     -19.645  -3.336 -23.696  1.00  0.00    -0.249 OA
ATOM     39  H   UNL     1     -18.370  -2.798 -25.898  1.00  0.00     0.165 HD
ENDBRANCH  29  31
ENDBRANCH   4  29
TORSDOF 4
ENDMDL
MODEL 10
REMARK VINA RESULT:    -8.861      1.675      2.283
REMARK INTER + INTRA:         -12.064
REMARK INTER:                 -11.192
REMARK INTRA:                  -0.872
REMARK UNBOUND:                -1.131
REMARK SMILES C[C@]1(C(=O)N2C[C@@H](c3cc4c(cc3F)OCCO4)O[C@](C)(c3c[nH]c4ccccc34)C2)CNC(=O)N1
REMARK SMILES IDX 19 1 7 2 6 3 5 4 31 5 20 6 21 7 8 8 9 9 13 10 10 11 12 12
REMARK SMILES IDX 11 13 18 14 15 15 17 16 16 17 14 18 22 19 30 20 23 21 25 22
REMARK SMILES IDX 29 23 24 24 26 25 28 26 27 27 3 29 4 30 2 31 36 32 32 33
REMARK SMILES IDX 34 34 33 35 1 36 35 38
REMARK H PARENT 24 28 36 37 33 39
ROOT
ATOM      1  O   UNL     1     -22.725  -5.684 -29.227  1.00  0.00    -0.359 OA
ATOM      2  C   UNL     1     -21.452  -5.138 -29.573  1.00  0.00     0.172 C 
ATOM      3  C   UNL     1     -20.307  -5.866 -28.848  1.00  0.00     0.156 C 
ATOM      4  N   UNL     1     -20.435  -5.760 -27.391  1.00  0.00    -0.334 N 
ATOM      5  C   UNL     1     -21.772  -5.388 -26.916  1.00  0.00     0.159 C 
ATOM      6  C   UNL     1     -22.957  -5.890 -27.816  1.00  0.00     0.111 C 
ATOM      7  C   UNL     1     -23.128  -7.410 -27.639  1.00  0.00     0.050 C 
ENDROOT
BRANCH   2   8
ATOM      8  C   UNL     1     -21.307  -5.204 -31.076  1.00  0.00     0.022 A 
ATOM      9  C   UNL     1     -20.503  -6.192 -31.666  1.00  0.00     0.060 A 
ATOM     10  C   UNL     1     -21.974  -4.303 -31.916  1.00  0.00     0.133 A 
ATOM     11  C   UNL     1     -20.382  -6.270 -33.054  1.00  0.00     0.161 A 
ATOM     12  C   UNL     1     -21.848  -4.365 -33.301  1.00  0.00     0.090 A 
ATOM     13  C   UNL     1     -21.036  -5.341 -33.870  1.00  0.00     0.164 A 
ATOM     14  O   UNL     1     -19.606  -7.289 -33.549  1.00  0.00    -0.486 OA
ATOM     15  O   UNL     1     -20.937  -5.344 -35.237  1.00  0.00    -0.486 OA
ATOM     16  C   UNL     1     -19.843  -7.490 -34.948  1.00  0.00     0.271 C 
ATOM     17  C   UNL     1     -19.850  -6.163 -35.686  1.00  0.00     0.271 C 
ATOM     18  F   UNL     1     -22.771  -3.357 -31.393  1.00  0.00    -0.206 F 
ENDBRANCH   2   8
BRANCH   6  19
ATOM     19  C   UNL     1     -24.256  -5.195 -27.399  1.00  0.00     0.011 A 
ATOM     20  C   UNL     1     -25.603  -5.687 -27.552  1.00  0.00     0.006 A 
ATOM     21  C   UNL     1     -24.370  -3.969 -26.759  1.00  0.00     0.090 A 
ATOM     22  C   UNL     1     -26.471  -4.722 -27.037  1.00  0.00     0.046 A 
ATOM     23  C   UNL     1     -26.173  -6.869 -28.076  1.00  0.00     0.011 A 
ATOM     24  N   UNL     1     -25.697  -3.691 -26.566  1.00  0.00    -0.361 N 
ATOM     25  C   UNL     1     -27.863  -4.867 -27.034  1.00  0.00     0.026 A 
ATOM     26  C   UNL     1     -27.562  -7.035 -28.079  1.00  0.00     0.001 A 
ATOM     27  C   UNL     1     -28.394  -6.046 -27.566  1.00  0.00     0.002 A 
ATOM     28  H   UNL     1     -26.064  -2.856 -26.131  1.00  0.00     0.166 HD
ENDBRANCH   6  19
BRANCH   4  29
ATOM     29  C   UNL     1     -19.283  -5.909 -26.632  1.00  0.00     0.250 C 
ATOM     30  O   UNL     1     -18.533  -4.936 -26.472  1.00  0.00    -0.272 OA
BRANCH  29  31
ATOM     31  C   UNL     1     -18.840  -7.299 -26.107  1.00  0.00     0.135 C 
ATOM     32  N   UNL     1     -17.880  -7.294 -25.012  1.00  0.00    -0.322 N 
ATOM     33  C   UNL     1     -18.025  -8.014 -27.215  1.00  0.00     0.156 C 
ATOM     34  C   UNL     1     -16.851  -8.186 -25.227  1.00  0.00     0.315 C 
ATOM     35  N   UNL     1     -16.998  -8.719 -26.487  1.00  0.00    -0.335 N 
ATOM     36  C   UNL     1     -20.073  -8.140 -25.749  1.00  0.00     0.047 C 
ATOM     37  H   UNL     1     -18.006  -6.926 -24.079  1.00  0.00     0.166 HD
ATOM     38  O   UNL     1     -15.969  -8.449 -24.433  1.00  0.00    -0.249 OA
ATOM     39  H   UNL     1     -16.227  -9.226 -26.901  1.00  0.00     0.165 HD
ENDBRANCH  29  31
ENDBRANCH   4  29
TORSDOF 4
ENDMDL
MODEL 11
REMARK VINA RESULT:    -8.797      2.463      6.938
REMARK INTER + INTRA:         -11.985
REMARK INTER:                 -11.328
REMARK INTRA:                  -0.656
REMARK UNBOUND:                -1.131
REMARK SMILES C[C@]1(C(=O)N2C[C@@H](c3cc4c(cc3F)OCCO4)O[C@](C)(c3c[nH]c4ccccc34)C2)CNC(=O)N1
REMARK SMILES IDX 19 1 7 2 6 3 5 4 31 5 20 6 21 7 8 8 9 9 13 10 10 11 12 12
REMARK SMILES IDX 11 13 18 14 15 15 17 16 16 17 14 18 22 19 30 20 23 21 25 22
REMARK SMILES IDX 29 23 24 24 26 25 28 26 27 27 3 29 4 30 2 31 36 32 32 33
REMARK SMILES IDX 34 34 33 35 1 36 35 38
REMARK H PARENT 24 28 36 37 33 39
ROOT
ATOM      1  O   UNL     1     -23.072  -5.458 -29.700  1.00  0.00    -0.359 OA
ATOM      2  C   UNL     1     -23.305  -6.609 -28.887  1.00  0.00     0.172 C 
ATOM      3  C   UNL     1     -22.342  -6.661 -27.688  1.00  0.00     0.156 C 
ATOM      4  N   UNL     1     -20.942  -6.720 -28.121  1.00  0.00    -0.334 N 
ATOM      5  C   UNL     1     -20.707  -6.301 -29.506  1.00  0.00     0.159 C 
ATOM      6  C   UNL     1     -21.691  -5.199 -30.039  1.00  0.00     0.111 C 
ATOM      7  C   UNL     1     -21.348  -3.846 -29.389  1.00  0.00     0.050 C 
ENDROOT
BRANCH   2   8
ATOM      8  C   UNL     1     -24.752  -6.591 -28.454  1.00  0.00     0.022 A 
ATOM      9  C   UNL     1     -25.249  -5.521 -27.692  1.00  0.00     0.060 A 
ATOM     10  C   UNL     1     -25.636  -7.618 -28.810  1.00  0.00     0.133 A 
ATOM     11  C   UNL     1     -26.590  -5.490 -27.307  1.00  0.00     0.161 A 
ATOM     12  C   UNL     1     -26.971  -7.602 -28.419  1.00  0.00     0.090 A 
ATOM     13  C   UNL     1     -27.445  -6.542 -27.651  1.00  0.00     0.164 A 
ATOM     14  O   UNL     1     -27.001  -4.390 -26.594  1.00  0.00    -0.486 OA
ATOM     15  O   UNL     1     -28.764  -6.587 -27.281  1.00  0.00    -0.486 OA
ATOM     16  C   UNL     1     -28.430  -4.291 -26.572  1.00  0.00     0.271 C 
ATOM     17  C   UNL     1     -29.056  -5.637 -26.248  1.00  0.00     0.271 C 
ATOM     18  F   UNL     1     -25.207  -8.647 -29.558  1.00  0.00    -0.206 F 
ENDBRANCH   2   8
BRANCH   6  19
ATOM     19  C   UNL     1     -21.549  -5.067 -31.558  1.00  0.00     0.011 A 
ATOM     20  C   UNL     1     -20.825  -5.937 -32.452  1.00  0.00     0.006 A 
ATOM     21  C   UNL     1     -22.129  -4.095 -32.362  1.00  0.00     0.090 A 
ATOM     22  C   UNL     1     -20.964  -5.431 -33.746  1.00  0.00     0.046 A 
ATOM     23  C   UNL     1     -20.064  -7.115 -32.286  1.00  0.00     0.011 A 
ATOM     24  N   UNL     1     -21.756  -4.314 -33.661  1.00  0.00    -0.361 N 
ATOM     25  C   UNL     1     -20.375  -6.026 -34.867  1.00  0.00     0.026 A 
ATOM     26  C   UNL     1     -19.470  -7.727 -33.395  1.00  0.00     0.001 A 
ATOM     27  C   UNL     1     -19.623  -7.187 -34.668  1.00  0.00     0.002 A 
ATOM     28  H   UNL     1     -22.029  -3.748 -34.452  1.00  0.00     0.166 HD
ENDBRANCH   6  19
BRANCH   4  29
ATOM     29  C   UNL     1     -20.019  -7.259 -27.236  1.00  0.00     0.250 C 
ATOM     30  O   UNL     1     -19.937  -8.490 -27.120  1.00  0.00    -0.272 OA
BRANCH  29  31
ATOM     31  C   UNL     1     -19.194  -6.354 -26.284  1.00  0.00     0.135 C 
ATOM     32  N   UNL     1     -19.886  -5.873 -25.097  1.00  0.00    -0.322 N 
ATOM     33  C   UNL     1     -18.884  -5.019 -27.010  1.00  0.00     0.156 C 
ATOM     34  C   UNL     1     -19.680  -4.525 -24.894  1.00  0.00     0.315 C 
ATOM     35  N   UNL     1     -18.973  -4.030 -25.964  1.00  0.00    -0.335 N 
ATOM     36  C   UNL     1     -17.881  -7.053 -25.907  1.00  0.00     0.047 C 
ATOM     37  H   UNL     1     -20.260  -6.420 -24.333  1.00  0.00     0.166 HD
ATOM     38  O   UNL     1     -20.064  -3.892 -23.929  1.00  0.00    -0.249 OA
ATOM     39  H   UNL     1     -18.913  -3.029 -26.096  1.00  0.00     0.165 HD
ENDBRANCH  29  31
ENDBRANCH   4  29
TORSDOF 4
ENDMDL
MODEL 12
REMARK VINA RESULT:    -8.719      2.079      5.756
REMARK INTER + INTRA:         -11.889
REMARK INTER:                 -10.860
REMARK INTRA:                  -1.028
REMARK UNBOUND:                -1.131
REMARK SMILES C[C@]1(C(=O)N2C[C@@H](c3cc4c(cc3F)OCCO4)O[C@](C)(c3c[nH]c4ccccc34)C2)CNC(=O)N1
REMARK SMILES IDX 19 1 7 2 6 3 5 4 31 5 20 6 21 7 8 8 9 9 13 10 10 11 12 12
REMARK SMILES IDX 11 13 18 14 15 15 17 16 16 17 14 18 22 19 30 20 23 21 25 22
REMARK SMILES IDX 29 23 24 24 26 25 28 26 27 27 3 29 4 30 2 31 36 32 32 33
REMARK SMILES IDX 34 34 33 35 1 36 35 38
REMARK H PARENT 24 28 36 37 33 39
ROOT
ATOM      1  O   UNL     1     -19.452  -5.281 -28.211  1.00  0.00    -0.359 OA
ATOM      2  C   UNL     1     -20.703  -5.782 -28.686  1.00  0.00     0.172 C 
ATOM      3  C   UNL     1     -21.877  -4.902 -28.225  1.00  0.00     0.156 C 
ATOM      4  N   UNL     1     -21.968  -4.844 -26.762  1.00  0.00    -0.334 N 
ATOM      5  C   UNL     1     -20.748  -5.243 -26.053  1.00  0.00     0.159 C 
ATOM      6  C   UNL     1     -19.409  -4.926 -26.811  1.00  0.00     0.111 C 
ATOM      7  C   UNL     1     -19.143  -3.410 -26.773  1.00  0.00     0.050 C 
ENDROOT
BRANCH   2   8
ATOM      8  C   UNL     1     -20.624  -5.883 -30.192  1.00  0.00     0.022 A 
ATOM      9  C   UNL     1     -20.267  -7.097 -30.801  1.00  0.00     0.060 A 
ATOM     10  C   UNL     1     -20.920  -4.789 -31.016  1.00  0.00     0.133 A 
ATOM     11  C   UNL     1     -20.213  -7.201 -32.192  1.00  0.00     0.161 A 
ATOM     12  C   UNL     1     -20.854  -4.880 -32.403  1.00  0.00     0.090 A 
ATOM     13  C   UNL     1     -20.484  -6.086 -32.992  1.00  0.00     0.164 A 
ATOM     14  O   UNL     1     -19.891  -8.433 -32.706  1.00  0.00    -0.486 OA
ATOM     15  O   UNL     1     -20.422  -6.113 -34.360  1.00  0.00    -0.486 OA
ATOM     16  C   UNL     1     -20.215  -8.516 -34.099  1.00  0.00     0.271 C 
ATOM     17  C   UNL     1     -19.735  -7.277 -34.835  1.00  0.00     0.271 C 
ATOM     18  F   UNL     1     -21.288  -3.617 -30.473  1.00  0.00    -0.206 F 
ENDBRANCH   2   8
BRANCH   6  19
ATOM     19  C   UNL     1     -18.244  -5.649 -26.131  1.00  0.00     0.011 A 
ATOM     20  C   UNL     1     -18.072  -7.071 -25.960  1.00  0.00     0.006 A 
ATOM     21  C   UNL     1     -17.113  -5.061 -25.582  1.00  0.00     0.090 A 
ATOM     22  C   UNL     1     -16.869  -7.276 -25.281  1.00  0.00     0.046 A 
ATOM     23  C   UNL     1     -18.824  -8.210 -26.322  1.00  0.00     0.011 A 
ATOM     24  N   UNL     1     -16.311  -6.042 -25.063  1.00  0.00    -0.361 N 
ATOM     25  C   UNL     1     -16.392  -8.546 -24.935  1.00  0.00     0.026 A 
ATOM     26  C   UNL     1     -18.362  -9.489 -25.989  1.00  0.00     0.001 A 
ATOM     27  C   UNL     1     -17.163  -9.652 -25.303  1.00  0.00     0.002 A 
ATOM     28  H   UNL     1     -15.428  -5.890 -24.595  1.00  0.00     0.166 HD
ENDBRANCH   6  19
BRANCH   4  29
ATOM     29  C   UNL     1     -23.202  -4.534 -26.208  1.00  0.00     0.250 C 
ATOM     30  O   UNL     1     -23.407  -3.388 -25.785  1.00  0.00    -0.272 OA
BRANCH  29  31
ATOM     31  C   UNL     1     -24.275  -5.629 -25.972  1.00  0.00     0.135 C 
ATOM     32  N   UNL     1     -23.781  -6.992 -25.838  1.00  0.00    -0.322 N 
ATOM     33  C   UNL     1     -25.149  -5.752 -27.247  1.00  0.00     0.156 C 
ATOM     34  C   UNL     1     -24.515  -7.881 -26.594  1.00  0.00     0.315 C 
ATOM     35  N   UNL     1     -25.422  -7.165 -27.342  1.00  0.00    -0.335 N 
ATOM     36  C   UNL     1     -25.157  -5.247 -24.776  1.00  0.00     0.047 C 
ATOM     37  H   UNL     1     -23.173  -7.364 -25.121  1.00  0.00     0.166 HD
ATOM     38  O   UNL     1     -24.377  -9.089 -26.593  1.00  0.00    -0.249 OA
ATOM     39  H   UNL     1     -25.898  -7.622 -28.109  1.00  0.00     0.165 HD
ENDBRANCH  29  31
ENDBRANCH   4  29
TORSDOF 4
ENDMDL
MODEL 13
REMARK VINA RESULT:    -8.510      1.796      2.356
REMARK INTER + INTRA:         -11.631
REMARK INTER:                 -10.891
REMARK INTRA:                  -0.740
REMARK UNBOUND:                -1.131
REMARK SMILES C[C@]1(C(=O)N2C[C@@H](c3cc4c(cc3F)OCCO4)O[C@](C)(c3c[nH]c4ccccc34)C2)CNC(=O)N1
REMARK SMILES IDX 19 1 7 2 6 3 5 4 31 5 20 6 21 7 8 8 9 9 13 10 10 11 12 12
REMARK SMILES IDX 11 13 18 14 15 15 17 16 16 17 14 18 22 19 30 20 23 21 25 22
REMARK SMILES IDX 29 23 24 24 26 25 28 26 27 27 3 29 4 30 2 31 36 32 32 33
REMARK SMILES IDX 34 34 33 35 1 36 35 38
REMARK H PARENT 24 28 36 37 33 39
ROOT
ATOM      1  O   UNL     1     -23.287  -6.376 -29.619  1.00  0.00    -0.359 OA
ATOM      2  C   UNL     1     -22.203  -5.447 -29.655  1.00  0.00     0.172 C 
ATOM      3  C   UNL     1     -21.008  -5.938 -28.821  1.00  0.00     0.156 C 
ATOM      4  N   UNL     1     -21.370  -6.118 -27.411  1.00  0.00    -0.334 N 
ATOM      5  C   UNL     1     -22.810  -6.218 -27.152  1.00  0.00     0.159 C 
ATOM      6  C   UNL     1     -23.645  -6.872 -28.310  1.00  0.00     0.111 C 
ATOM      7  C   UNL     1     -23.371  -8.387 -28.349  1.00  0.00     0.050 C 
ENDROOT
BRANCH   2   8
ATOM      8  C   UNL     1     -21.831  -5.217 -31.102  1.00  0.00     0.022 A 
ATOM      9  C   UNL     1     -20.830  -5.994 -31.706  1.00  0.00     0.060 A 
ATOM     10  C   UNL     1     -22.478  -4.247 -31.879  1.00  0.00     0.133 A 
ATOM     11  C   UNL     1     -20.497  -5.800 -33.047  1.00  0.00     0.161 A 
ATOM     12  C   UNL     1     -22.142  -4.037 -33.213  1.00  0.00     0.090 A 
ATOM     13  C   UNL     1     -21.137  -4.805 -33.794  1.00  0.00     0.164 A 
ATOM     14  O   UNL     1     -19.533  -6.626 -33.570  1.00  0.00    -0.486 OA
ATOM     15  O   UNL     1     -20.839  -4.543 -35.105  1.00  0.00    -0.486 OA
ATOM     16  C   UNL     1     -19.534  -6.586 -35.002  1.00  0.00     0.271 C 
ATOM     17  C   UNL     1     -19.602  -5.152 -35.497  1.00  0.00     0.271 C 
ATOM     18  F   UNL     1     -23.457  -3.499 -31.345  1.00  0.00    -0.206 F 
ENDBRANCH   2   8
BRANCH   6  19
ATOM     19  C   UNL     1     -25.139  -6.647 -28.064  1.00  0.00     0.011 A 
ATOM     20  C   UNL     1     -25.759  -5.544 -27.370  1.00  0.00     0.006 A 
ATOM     21  C   UNL     1     -26.181  -7.454 -28.500  1.00  0.00     0.090 A 
ATOM     22  C   UNL     1     -27.139  -5.753 -27.382  1.00  0.00     0.046 A 
ATOM     23  C   UNL     1     -25.277  -4.378 -26.734  1.00  0.00     0.011 A 
ATOM     24  N   UNL     1     -27.366  -6.919 -28.070  1.00  0.00    -0.361 N 
ATOM     25  C   UNL     1     -28.051  -4.878 -26.783  1.00  0.00     0.026 A 
ATOM     26  C   UNL     1     -26.174  -3.488 -26.133  1.00  0.00     0.001 A 
ATOM     27  C   UNL     1     -27.542  -3.737 -26.156  1.00  0.00     0.002 A 
ATOM     28  H   UNL     1     -28.282  -7.311 -28.240  1.00  0.00     0.166 HD
ENDBRANCH   6  19
BRANCH   4  29
ATOM     29  C   UNL     1     -20.348  -6.064 -26.474  1.00  0.00     0.250 C 
ATOM     30  O   UNL     1     -20.019  -4.969 -25.996  1.00  0.00    -0.272 OA
BRANCH  29  31
ATOM     31  C   UNL     1     -19.511  -7.322 -26.124  1.00  0.00     0.135 C 
ATOM     32  N   UNL     1     -18.514  -7.158 -25.075  1.00  0.00    -0.322 N 
ATOM     33  C   UNL     1     -18.612  -7.675 -27.337  1.00  0.00     0.156 C 
ATOM     34  C   UNL     1     -17.300  -7.707 -25.429  1.00  0.00     0.315 C 
ATOM     35  N   UNL     1     -17.385  -8.136 -26.734  1.00  0.00    -0.335 N 
ATOM     36  C   UNL     1     -20.443  -8.501 -25.812  1.00  0.00     0.047 C 
ATOM     37  H   UNL     1     -18.670  -6.929 -24.103  1.00  0.00     0.166 HD
ATOM     38  O   UNL     1     -16.328  -7.792 -24.705  1.00  0.00    -0.249 OA
ATOM     39  H   UNL     1     -16.537  -8.370 -27.232  1.00  0.00     0.165 HD
ENDBRANCH  29  31
ENDBRANCH   4  29
TORSDOF 4
ENDMDL
MODEL 14
REMARK VINA RESULT:    -8.386      2.455      7.256
REMARK INTER + INTRA:         -11.478
REMARK INTER:                 -10.802
REMARK INTRA:                  -0.675
REMARK UNBOUND:                -1.131
REMARK SMILES C[C@]1(C(=O)N2C[C@@H](c3cc4c(cc3F)OCCO4)O[C@](C)(c3c[nH]c4ccccc34)C2)CNC(=O)N1
REMARK SMILES IDX 19 1 7 2 6 3 5 4 31 5 20 6 21 7 8 8 9 9 13 10 10 11 12 12
REMARK SMILES IDX 11 13 18 14 15 15 17 16 16 17 14 18 22 19 30 20 23 21 25 22
REMARK SMILES IDX 29 23 24 24 26 25 28 26 27 27 3 29 4 30 2 31 36 32 32 33
REMARK SMILES IDX 34 34 33 35 1 36 35 38
REMARK H PARENT 24 28 36 37 33 39
ROOT
ATOM      1  O   UNL     1     -22.024  -6.004 -29.841  1.00  0.00    -0.359 OA
ATOM      2  C   UNL     1     -22.165  -6.136 -28.425  1.00  0.00     0.172 C 
ATOM      3  C   UNL     1     -21.318  -5.096 -27.672  1.00  0.00     0.156 C 
ATOM      4  N   UNL     1     -19.889  -5.240 -27.975  1.00  0.00    -0.334 N 
ATOM      5  C   UNL     1     -19.591  -6.003 -29.191  1.00  0.00     0.159 C 
ATOM      6  C   UNL     1     -20.669  -5.883 -30.327  1.00  0.00     0.111 C 
ATOM      7  C   UNL     1     -20.581  -4.488 -30.973  1.00  0.00     0.050 C 
ENDROOT
BRANCH   2   8
ATOM      8  C   UNL     1     -23.634  -6.024 -28.089  1.00  0.00     0.022 A 
ATOM      9  C   UNL     1     -24.155  -4.819 -27.590  1.00  0.00     0.060 A 
ATOM     10  C   UNL     1     -24.512  -7.099 -28.278  1.00  0.00     0.133 A 
ATOM     11  C   UNL     1     -25.515  -4.705 -27.298  1.00  0.00     0.161 A 
ATOM     12  C   UNL     1     -25.867  -6.998 -27.975  1.00  0.00     0.090 A 
ATOM     13  C   UNL     1     -26.366  -5.802 -27.468  1.00  0.00     0.164 A 
ATOM     14  O   UNL     1     -25.948  -3.482 -26.849  1.00  0.00    -0.486 OA
ATOM     15  O   UNL     1     -27.703  -5.766 -27.173  1.00  0.00    -0.486 OA
ATOM     16  C   UNL     1     -27.375  -3.374 -26.929  1.00  0.00     0.271 C 
ATOM     17  C   UNL     1     -28.037  -4.624 -26.375  1.00  0.00     0.271 C 
ATOM     18  F   UNL     1     -24.058  -8.261 -28.775  1.00  0.00    -0.206 F 
ENDBRANCH   2   8
BRANCH   6  19
ATOM     19  C   UNL     1     -20.410  -6.942 -31.403  1.00  0.00     0.011 A 
ATOM     20  C   UNL     1     -20.395  -6.755 -32.833  1.00  0.00     0.006 A 
ATOM     21  C   UNL     1     -20.103  -8.279 -31.191  1.00  0.00     0.090 A 
ATOM     22  C   UNL     1     -20.121  -7.992 -33.421  1.00  0.00     0.046 A 
ATOM     23  C   UNL     1     -20.583  -5.648 -33.689  1.00  0.00     0.011 A 
ATOM     24  N   UNL     1     -19.952  -8.896 -32.403  1.00  0.00    -0.361 N 
ATOM     25  C   UNL     1     -20.044  -8.180 -34.806  1.00  0.00     0.026 A 
ATOM     26  C   UNL     1     -20.505  -5.815 -35.077  1.00  0.00     0.001 A 
ATOM     27  C   UNL     1     -20.242  -7.065 -35.626  1.00  0.00     0.002 A 
ATOM     28  H   UNL     1     -19.736  -9.874 -32.540  1.00  0.00     0.166 HD
ENDBRANCH   6  19
BRANCH   4  29
ATOM     29  C   UNL     1     -18.984  -4.750 -27.045  1.00  0.00     0.250 C 
ATOM     30  O   UNL     1     -18.709  -3.542 -27.043  1.00  0.00    -0.272 OA
BRANCH  29  31
ATOM     31  C   UNL     1     -18.199  -5.704 -26.107  1.00  0.00     0.135 C 
ATOM     32  N   UNL     1     -17.469  -6.784 -26.755  1.00  0.00    -0.322 N 
ATOM     33  C   UNL     1     -19.214  -6.504 -25.249  1.00  0.00     0.156 C 
ATOM     34  C   UNL     1     -17.674  -7.993 -26.126  1.00  0.00     0.315 C 
ATOM     35  N   UNL     1     -18.617  -7.812 -25.141  1.00  0.00    -0.335 N 
ATOM     36  C   UNL     1     -17.275  -4.892 -25.189  1.00  0.00     0.047 C 
ATOM     37  H   UNL     1     -16.697  -6.707 -27.405  1.00  0.00     0.166 HD
ATOM     38  O   UNL     1     -17.113  -9.035 -26.404  1.00  0.00    -0.249 OA
ATOM     39  H   UNL     1     -19.050  -8.623 -24.718  1.00  0.00     0.165 HD
ENDBRANCH  29  31
ENDBRANCH   4  29
TORSDOF 4
ENDMDL
MODEL 15
REMARK VINA RESULT:    -8.352      2.620      7.148
REMARK INTER + INTRA:         -11.436
REMARK INTER:                 -10.802
REMARK INTRA:                  -0.634
REMARK UNBOUND:                -1.131
REMARK SMILES C[C@]1(C(=O)N2C[C@@H](c3cc4c(cc3F)OCCO4)O[C@](C)(c3c[nH]c4ccccc34)C2)CNC(=O)N1
REMARK SMILES IDX 19 1 7 2 6 3 5 4 31 5 20 6 21 7 8 8 9 9 13 10 10 11 12 12
REMARK SMILES IDX 11 13 18 14 15 15 17 16 16 17 14 18 22 19 30 20 23 21 25 22
REMARK SMILES IDX 29 23 24 24 26 25 28 26 27 27 3 29 4 30 2 31 36 32 32 33
REMARK SMILES IDX 34 34 33 35 1 36 35 38
REMARK H PARENT 24 28 36 37 33 39
ROOT
ATOM      1  O   UNL     1     -22.820  -5.226 -29.626  1.00  0.00    -0.359 OA
ATOM      2  C   UNL     1     -23.388  -6.326 -28.914  1.00  0.00     0.172 C 
ATOM      3  C   UNL     1     -22.386  -6.936 -27.919  1.00  0.00     0.156 C 
ATOM      4  N   UNL     1     -21.187  -7.440 -28.599  1.00  0.00    -0.334 N 
ATOM      5  C   UNL     1     -20.978  -6.911 -29.950  1.00  0.00     0.159 C 
ATOM      6  C   UNL     1     -21.503  -5.448 -30.177  1.00  0.00     0.111 C 
ATOM      7  C   UNL     1     -20.576  -4.452 -29.456  1.00  0.00     0.050 C 
ENDROOT
BRANCH   2   8
ATOM      8  C   UNL     1     -24.646  -5.842 -28.230  1.00  0.00     0.022 A 
ATOM      9  C   UNL     1     -25.836  -6.581 -28.333  1.00  0.00     0.060 A 
ATOM     10  C   UNL     1     -24.658  -4.667 -27.468  1.00  0.00     0.133 A 
ATOM     11  C   UNL     1     -26.994  -6.148 -27.685  1.00  0.00     0.161 A 
ATOM     12  C   UNL     1     -25.813  -4.221 -26.831  1.00  0.00     0.090 A 
ATOM     13  C   UNL     1     -26.988  -4.956 -26.955  1.00  0.00     0.164 A 
ATOM     14  O   UNL     1     -28.103  -6.949 -27.808  1.00  0.00    -0.486 OA
ATOM     15  O   UNL     1     -28.097  -4.461 -26.320  1.00  0.00    -0.486 OA
ATOM     16  C   UNL     1     -29.098  -6.610 -26.833  1.00  0.00     0.271 C 
ATOM     17  C   UNL     1     -29.295  -5.106 -26.769  1.00  0.00     0.271 C 
ATOM     18  F   UNL     1     -23.536  -3.944 -27.326  1.00  0.00    -0.206 F 
ENDBRANCH   2   8
BRANCH   6  19
ATOM     19  C   UNL     1     -21.508  -5.124 -31.673  1.00  0.00     0.011 A 
ATOM     20  C   UNL     1     -20.804  -5.817 -32.724  1.00  0.00     0.006 A 
ATOM     21  C   UNL     1     -22.228  -4.116 -32.299  1.00  0.00     0.090 A 
ATOM     22  C   UNL     1     -21.096  -5.174 -33.929  1.00  0.00     0.046 A 
ATOM     23  C   UNL     1     -19.946  -6.938 -32.770  1.00  0.00     0.011 A 
ATOM     24  N   UNL     1     -21.957  -4.145 -33.641  1.00  0.00    -0.361 N 
ATOM     25  C   UNL     1     -20.567  -5.578 -35.159  1.00  0.00     0.026 A 
ATOM     26  C   UNL     1     -19.411  -7.361 -33.991  1.00  0.00     0.001 A 
ATOM     27  C   UNL     1     -19.716  -6.688 -35.169  1.00  0.00     0.002 A 
ATOM     28  H   UNL     1     -22.341  -3.514 -34.330  1.00  0.00     0.166 HD
ENDBRANCH   6  19
BRANCH   4  29
ATOM     29  C   UNL     1     -20.452  -8.426 -27.957  1.00  0.00     0.250 C 
ATOM     30  O   UNL     1     -20.997  -9.502 -27.674  1.00  0.00    -0.272 OA
BRANCH  29  31
ATOM     31  C   UNL     1     -19.010  -8.155 -27.454  1.00  0.00     0.135 C 
ATOM     32  N   UNL     1     -18.599  -8.883 -26.262  1.00  0.00    -0.322 N 
ATOM     33  C   UNL     1     -18.924  -6.690 -26.953  1.00  0.00     0.156 C 
ATOM     34  C   UNL     1     -17.974  -8.061 -25.349  1.00  0.00     0.315 C 
ATOM     35  N   UNL     1     -18.047  -6.768 -25.811  1.00  0.00    -0.335 N 
ATOM     36  C   UNL     1     -18.009  -8.369 -28.598  1.00  0.00     0.047 C 
ATOM     37  H   UNL     1     -18.504  -9.883 -26.149  1.00  0.00     0.166 HD
ATOM     38  O   UNL     1     -17.451  -8.428 -24.314  1.00  0.00    -0.249 OA
ATOM     39  H   UNL     1     -17.834  -6.006 -25.180  1.00  0.00     0.165 HD
ENDBRANCH  29  31
ENDBRANCH   4  29
TORSDOF 4
ENDMDL
MODEL 16
REMARK VINA RESULT:    -8.201      2.249      5.262
REMARK INTER + INTRA:         -11.250
REMARK INTER:                 -10.298
REMARK INTRA:                  -0.952
REMARK UNBOUND:                -1.131
REMARK SMILES C[C@]1(C(=O)N2C[C@@H](c3cc4c(cc3F)OCCO4)O[C@](C)(c3c[nH]c4ccccc34)C2)CNC(=O)N1
REMARK SMILES IDX 19 1 7 2 6 3 5 4 31 5 20 6 21 7 8 8 9 9 13 10 10 11 12 12
REMARK SMILES IDX 11 13 18 14 15 15 17 16 16 17 14 18 22 19 30 20 23 21 25 22
REMARK SMILES IDX 29 23 24 24 26 25 28 26 27 27 3 29 4 30 2 31 36 32 32 33
REMARK SMILES IDX 34 34 33 35 1 36 35 38
REMARK H PARENT 24 28 36 37 33 39
ROOT
ATOM      1  O   UNL     1     -20.729  -4.742 -29.269  1.00  0.00    -0.359 OA
ATOM      2  C   UNL     1     -21.383  -5.822 -29.938  1.00  0.00     0.172 C 
ATOM      3  C   UNL     1     -22.879  -5.884 -29.586  1.00  0.00     0.156 C 
ATOM      4  N   UNL     1     -23.088  -6.083 -28.147  1.00  0.00    -0.334 N 
ATOM      5  C   UNL     1     -21.930  -5.765 -27.306  1.00  0.00     0.159 C 
ATOM      6  C   UNL     1     -21.008  -4.618 -27.857  1.00  0.00     0.111 C 
ATOM      7  C   UNL     1     -21.721  -3.262 -27.690  1.00  0.00     0.050 C 
ENDROOT
BRANCH   2   8
ATOM      8  C   UNL     1     -21.154  -5.659 -31.423  1.00  0.00     0.022 A 
ATOM      9  C   UNL     1     -20.392  -6.605 -32.128  1.00  0.00     0.060 A 
ATOM     10  C   UNL     1     -21.703  -4.585 -32.135  1.00  0.00     0.133 A 
ATOM     11  C   UNL     1     -20.196  -6.470 -33.503  1.00  0.00     0.161 A 
ATOM     12  C   UNL     1     -21.500  -4.435 -33.504  1.00  0.00     0.090 A 
ATOM     13  C   UNL     1     -20.730  -5.373 -34.186  1.00  0.00     0.164 A 
ATOM     14  O   UNL     1     -19.469  -7.458 -34.122  1.00  0.00    -0.486 OA
ATOM     15  O   UNL     1     -20.550  -5.166 -35.529  1.00  0.00    -0.486 OA
ATOM     16  C   UNL     1     -19.637  -7.413 -35.544  1.00  0.00     0.271 C 
ATOM     17  C   UNL     1     -19.502  -5.989 -36.055  1.00  0.00     0.271 C 
ATOM     18  F   UNL     1     -22.457  -3.672 -31.502  1.00  0.00    -0.206 F 
ENDBRANCH   2   8
BRANCH   6  19
ATOM     19  C   UNL     1     -19.695  -4.585 -27.072  1.00  0.00     0.011 A 
ATOM     20  C   UNL     1     -18.951  -5.708 -26.556  1.00  0.00     0.006 A 
ATOM     21  C   UNL     1     -18.955  -3.457 -26.743  1.00  0.00     0.090 A 
ATOM     22  C   UNL     1     -17.821  -5.209 -25.905  1.00  0.00     0.046 A 
ATOM     23  C   UNL     1     -19.127  -7.109 -26.584  1.00  0.00     0.011 A 
ATOM     24  N   UNL     1     -17.851  -3.843 -26.031  1.00  0.00    -0.361 N 
ATOM     25  C   UNL     1     -16.878  -6.027 -25.273  1.00  0.00     0.026 A 
ATOM     26  C   UNL     1     -18.193  -7.945 -25.962  1.00  0.00     0.001 A 
ATOM     27  C   UNL     1     -17.085  -7.409 -25.314  1.00  0.00     0.002 A 
ATOM     28  H   UNL     1     -17.147  -3.221 -25.658  1.00  0.00     0.166 HD
ENDBRANCH   6  19
BRANCH   4  29
ATOM     29  C   UNL     1     -24.291  -6.645 -27.745  1.00  0.00     0.250 C 
ATOM     30  O   UNL     1     -25.313  -5.944 -27.728  1.00  0.00    -0.272 OA
BRANCH  29  31
ATOM     31  C   UNL     1     -24.356  -8.087 -27.178  1.00  0.00     0.135 C 
ATOM     32  N   UNL     1     -23.786  -8.280 -25.852  1.00  0.00    -0.322 N 
ATOM     33  C   UNL     1     -23.439  -8.999 -28.032  1.00  0.00     0.156 C 
ATOM     34  C   UNL     1     -22.974  -9.393 -25.799  1.00  0.00     0.315 C 
ATOM     35  N   UNL     1     -22.863  -9.907 -27.070  1.00  0.00    -0.335 N 
ATOM     36  C   UNL     1     -25.798  -8.607 -27.234  1.00  0.00     0.047 C 
ATOM     37  H   UNL     1     -24.092  -7.869 -24.980  1.00  0.00     0.166 HD
ATOM     38  O   UNL     1     -22.451  -9.835 -24.795  1.00  0.00    -0.249 OA
ATOM     39  H   UNL     1     -22.144 -10.591 -27.264  1.00  0.00     0.165 HD
ENDBRANCH  29  31
ENDBRANCH   4  29
TORSDOF 4
ENDMDL
MODEL 17
REMARK VINA RESULT:    -8.187      3.115      7.019
REMARK INTER + INTRA:         -11.232
REMARK INTER:                 -10.594
REMARK INTRA:                  -0.638
REMARK UNBOUND:                -1.131
REMARK SMILES C[C@]1(C(=O)N2C[C@@H](c3cc4c(cc3F)OCCO4)O[C@](C)(c3c[nH]c4ccccc34)C2)CNC(=O)N1
REMARK SMILES IDX 19 1 7 2 6 3 5 4 31 5 20 6 21 7 8 8 9 9 13 10 10 11 12 12
REMARK SMILES IDX 11 13 18 14 15 15 17 16 16 17 14 18 22 19 30 20 23 21 25 22
REMARK SMILES IDX 29 23 24 24 26 25 28 26 27 27 3 29 4 30 2 31 36 32 32 33
REMARK SMILES IDX 34 34 33 35 1 36 35 38
REMARK H PARENT 24 28 36 37 33 39
ROOT
ATOM      1  O   UNL     1     -22.139  -5.648 -28.195  1.00  0.00    -0.359 OA
ATOM      2  C   UNL     1     -22.112  -6.904 -27.515  1.00  0.00     0.172 C 
ATOM      3  C   UNL     1     -20.776  -7.124 -26.785  1.00  0.00     0.156 C 
ATOM      4  N   UNL     1     -19.643  -7.118 -27.717  1.00  0.00    -0.334 N 
ATOM      5  C   UNL     1     -19.921  -6.506 -29.020  1.00  0.00     0.159 C 
ATOM      6  C   UNL     1     -20.974  -5.341 -28.992  1.00  0.00     0.111 C 
ATOM      7  C   UNL     1     -20.343  -4.093 -28.345  1.00  0.00     0.050 C 
ENDROOT
BRANCH   2   8
ATOM      8  C   UNL     1     -23.291  -6.950 -26.570  1.00  0.00     0.022 A 
ATOM      9  C   UNL     1     -23.955  -5.766 -26.211  1.00  0.00     0.060 A 
ATOM     10  C   UNL     1     -23.761  -8.161 -26.045  1.00  0.00     0.133 A 
ATOM     11  C   UNL     1     -25.057  -5.806 -25.355  1.00  0.00     0.161 A 
ATOM     12  C   UNL     1     -24.850  -8.208 -25.179  1.00  0.00     0.090 A 
ATOM     13  C   UNL     1     -25.489  -7.025 -24.821  1.00  0.00     0.164 A 
ATOM     14  O   UNL     1     -25.671  -4.608 -25.084  1.00  0.00    -0.486 OA
ATOM     15  O   UNL     1     -26.545  -7.130 -23.953  1.00  0.00    -0.486 OA
ATOM     16  C   UNL     1     -26.968  -4.807 -24.510  1.00  0.00     0.271 C 
ATOM     17  C   UNL     1     -26.913  -5.856 -23.412  1.00  0.00     0.271 C 
ATOM     18  F   UNL     1     -23.167  -9.317 -26.382  1.00  0.00    -0.206 F 
ENDBRANCH   2   8
BRANCH   6  19
ATOM     19  C   UNL     1     -21.402  -4.993 -30.420  1.00  0.00     0.011 A 
ATOM     20  C   UNL     1     -22.309  -3.951 -30.836  1.00  0.00     0.006 A 
ATOM     21  C   UNL     1     -20.961  -5.601 -31.587  1.00  0.00     0.090 A 
ATOM     22  C   UNL     1     -22.408  -4.002 -32.228  1.00  0.00     0.046 A 
ATOM     23  C   UNL     1     -23.055  -2.960 -30.161  1.00  0.00     0.011 A 
ATOM     24  N   UNL     1     -21.584  -5.013 -32.656  1.00  0.00    -0.361 N 
ATOM     25  C   UNL     1     -23.218  -3.135 -32.969  1.00  0.00     0.026 A 
ATOM     26  C   UNL     1     -23.868  -2.081 -30.885  1.00  0.00     0.001 A 
ATOM     27  C   UNL     1     -23.949  -2.170 -32.271  1.00  0.00     0.002 A 
ATOM     28  H   UNL     1     -21.454  -5.269 -33.624  1.00  0.00     0.166 HD
ENDBRANCH   6  19
BRANCH   4  29
ATOM     29  C   UNL     1     -18.486  -7.777 -27.325  1.00  0.00     0.250 C 
ATOM     30  O   UNL     1     -17.991  -8.630 -28.074  1.00  0.00    -0.272 OA
BRANCH  29  31
ATOM     31  C   UNL     1     -17.886  -7.573 -25.910  1.00  0.00     0.135 C 
ATOM     32  N   UNL     1     -16.476  -7.904 -25.758  1.00  0.00    -0.322 N 
ATOM     33  C   UNL     1     -18.537  -8.593 -24.941  1.00  0.00     0.156 C 
ATOM     34  C   UNL     1     -16.244  -8.661 -24.630  1.00  0.00     0.315 C 
ATOM     35  N   UNL     1     -17.458  -8.969 -24.061  1.00  0.00    -0.335 N 
ATOM     36  C   UNL     1     -18.168  -6.145 -25.423  1.00  0.00     0.047 C 
ATOM     37  H   UNL     1     -15.684  -7.467 -26.212  1.00  0.00     0.166 HD
ATOM     38  O   UNL     1     -15.150  -8.992 -24.217  1.00  0.00    -0.249 OA
ATOM     39  H   UNL     1     -17.502  -9.690 -23.352  1.00  0.00     0.165 HD
ENDBRANCH  29  31
ENDBRANCH   4  29
TORSDOF 4
ENDMDL
MODEL 18
REMARK VINA RESULT:    -8.183      2.896      7.033
REMARK INTER + INTRA:         -11.227
REMARK INTER:                  -9.901
REMARK INTRA:                  -1.326
REMARK UNBOUND:                -1.131
REMARK SMILES C[C@]1(C(=O)N2C[C@@H](c3cc4c(cc3F)OCCO4)O[C@](C)(c3c[nH]c4ccccc34)C2)CNC(=O)N1
REMARK SMILES IDX 19 1 7 2 6 3 5 4 31 5 20 6 21 7 8 8 9 9 13 10 10 11 12 12
REMARK SMILES IDX 11 13 18 14 15 15 17 16 16 17 14 18 22 19 30 20 23 21 25 22
REMARK SMILES IDX 29 23 24 24 26 25 28 26 27 27 3 29 4 30 2 31 36 32 32 33
REMARK SMILES IDX 34 34 33 35 1 36 35 38
REMARK H PARENT 24 28 36 37 33 39
ROOT
ATOM      1  O   UNL     1     -23.010  -5.408 -28.117  1.00  0.00    -0.359 OA
ATOM      2  C   UNL     1     -23.463  -6.592 -27.459  1.00  0.00     0.172 C 
ATOM      3  C   UNL     1     -22.354  -7.222 -26.600  1.00  0.00     0.156 C 
ATOM      4  N   UNL     1     -21.191  -7.601 -27.409  1.00  0.00    -0.334 N 
ATOM      5  C   UNL     1     -21.118  -6.954 -28.723  1.00  0.00     0.159 C 
ATOM      6  C   UNL     1     -21.732  -5.510 -28.784  1.00  0.00     0.111 C 
ATOM      7  C   UNL     1     -20.801  -4.524 -28.054  1.00  0.00     0.050 C 
ENDROOT
BRANCH   2   8
ATOM      8  C   UNL     1     -24.683  -6.236 -26.643  1.00  0.00     0.022 A 
ATOM      9  C   UNL     1     -24.562  -5.968 -25.270  1.00  0.00     0.060 A 
ATOM     10  C   UNL     1     -25.954  -6.148 -27.226  1.00  0.00     0.133 A 
ATOM     11  C   UNL     1     -25.682  -5.619 -24.516  1.00  0.00     0.161 A 
ATOM     12  C   UNL     1     -27.080  -5.814 -26.478  1.00  0.00     0.090 A 
ATOM     13  C   UNL     1     -26.945  -5.565 -25.115  1.00  0.00     0.164 A 
ATOM     14  O   UNL     1     -25.469  -5.337 -23.188  1.00  0.00    -0.486 OA
ATOM     15  O   UNL     1     -28.089  -5.258 -24.426  1.00  0.00    -0.486 OA
ATOM     16  C   UNL     1     -26.592  -4.656 -22.615  1.00  0.00     0.271 C 
ATOM     17  C   UNL     1     -27.890  -5.337 -23.010  1.00  0.00     0.271 C 
ATOM     18  F   UNL     1     -26.110  -6.374 -28.540  1.00  0.00    -0.206 F 
ENDBRANCH   2   8
BRANCH   6  19
ATOM     19  C   UNL     1     -21.875  -5.067 -30.243  1.00  0.00     0.011 A 
ATOM     20  C   UNL     1     -22.630  -3.948 -30.751  1.00  0.00     0.006 A 
ATOM     21  C   UNL     1     -21.266  -5.648 -31.347  1.00  0.00     0.090 A 
ATOM     22  C   UNL     1     -22.478  -3.926 -32.139  1.00  0.00     0.046 A 
ATOM     23  C   UNL     1     -23.428  -2.943 -30.162  1.00  0.00     0.011 A 
ATOM     24  N   UNL     1     -21.650  -4.969 -32.472  1.00  0.00    -0.361 N 
ATOM     25  C   UNL     1     -23.089  -2.974 -32.961  1.00  0.00     0.026 A 
ATOM     26  C   UNL     1     -24.045  -1.978 -30.967  1.00  0.00     0.001 A 
ATOM     27  C   UNL     1     -23.878  -1.996 -32.347  1.00  0.00     0.002 A 
ATOM     28  H   UNL     1     -21.361  -5.188 -33.416  1.00  0.00     0.166 HD
ENDBRANCH   6  19
BRANCH   4  29
ATOM     29  C   UNL     1     -20.358  -8.592 -26.911  1.00  0.00     0.250 C 
ATOM     30  O   UNL     1     -20.634  -9.781 -27.123  1.00  0.00    -0.272 OA
BRANCH  29  31
ATOM     31  C   UNL     1     -19.172  -8.249 -25.972  1.00  0.00     0.135 C 
ATOM     32  N   UNL     1     -19.134  -6.887 -25.458  1.00  0.00    -0.322 N 
ATOM     33  C   UNL     1     -17.857  -8.294 -26.793  1.00  0.00     0.156 C 
ATOM     34  C   UNL     1     -17.877  -6.333 -25.563  1.00  0.00     0.315 C 
ATOM     35  N   UNL     1     -17.071  -7.217 -26.243  1.00  0.00    -0.335 N 
ATOM     36  C   UNL     1     -19.101  -9.268 -24.826  1.00  0.00     0.047 C 
ATOM     37  H   UNL     1     -19.808  -6.434 -24.856  1.00  0.00     0.166 HD
ATOM     38  O   UNL     1     -17.546  -5.248 -25.126  1.00  0.00    -0.249 OA
ATOM     39  H   UNL     1     -16.180  -6.898 -26.601  1.00  0.00     0.165 HD
ENDBRANCH  29  31
ENDBRANCH   4  29
TORSDOF 4
ENDMDL
MODEL 19
REMARK VINA RESULT:    -8.055      3.090      7.338
REMARK INTER + INTRA:         -11.070
REMARK INTER:                  -9.826
REMARK INTRA:                  -1.244
REMARK UNBOUND:                -1.131
REMARK SMILES C[C@]1(C(=O)N2C[C@@H](c3cc4c(cc3F)OCCO4)O[C@](C)(c3c[nH]c4ccccc34)C2)CNC(=O)N1
REMARK SMILES IDX 19 1 7 2 6 3 5 4 31 5 20 6 21 7 8 8 9 9 13 10 10 11 12 12
REMARK SMILES IDX 11 13 18 14 15 15 17 16 16 17 14 18 22 19 30 20 23 21 25 22
REMARK SMILES IDX 29 23 24 24 26 25 28 26 27 27 3 29 4 30 2 31 36 32 32 33
REMARK SMILES IDX 34 34 33 35 1 36 35 38
REMARK H PARENT 24 28 36 37 33 39
ROOT
ATOM      1  O   UNL     1     -22.190  -5.550 -28.031  1.00  0.00    -0.359 OA
ATOM      2  C   UNL     1     -22.124  -6.776 -27.301  1.00  0.00     0.172 C 
ATOM      3  C   UNL     1     -20.820  -6.886 -26.494  1.00  0.00     0.156 C 
ATOM      4  N   UNL     1     -19.639  -6.843 -27.364  1.00  0.00    -0.334 N 
ATOM      5  C   UNL     1     -19.881  -6.297 -28.703  1.00  0.00     0.159 C 
ATOM      6  C   UNL     1     -21.003  -5.200 -28.777  1.00  0.00     0.111 C 
ATOM      7  C   UNL     1     -20.486  -3.893 -28.148  1.00  0.00     0.050 C 
ENDROOT
BRANCH   2   8
ATOM      8  C   UNL     1     -23.348  -6.862 -26.419  1.00  0.00     0.022 A 
ATOM      9  C   UNL     1     -24.101  -5.709 -26.140  1.00  0.00     0.060 A 
ATOM     10  C   UNL     1     -23.773  -8.080 -25.873  1.00  0.00     0.133 A 
ATOM     11  C   UNL     1     -25.244  -5.787 -25.343  1.00  0.00     0.161 A 
ATOM     12  C   UNL     1     -24.903  -8.163 -25.065  1.00  0.00     0.090 A 
ATOM     13  C   UNL     1     -25.631  -7.010 -24.786  1.00  0.00     0.164 A 
ATOM     14  O   UNL     1     -25.942  -4.620 -25.151  1.00  0.00    -0.486 OA
ATOM     15  O   UNL     1     -26.724  -7.150 -23.972  1.00  0.00    -0.486 OA
ATOM     16  C   UNL     1     -27.255  -4.879 -24.639  1.00  0.00     0.271 C 
ATOM     17  C   UNL     1     -27.198  -5.882 -23.501  1.00  0.00     0.271 C 
ATOM     18  F   UNL     1     -23.094  -9.208 -26.133  1.00  0.00    -0.206 F 
ENDBRANCH   2   8
BRANCH   6  19
ATOM     19  C   UNL     1     -21.372  -4.932 -30.238  1.00  0.00     0.011 A 
ATOM     20  C   UNL     1     -22.262  -3.917 -30.748  1.00  0.00     0.006 A 
ATOM     21  C   UNL     1     -20.883  -5.602 -31.351  1.00  0.00     0.090 A 
ATOM     22  C   UNL     1     -22.303  -4.044 -32.137  1.00  0.00     0.046 A 
ATOM     23  C   UNL     1     -23.036  -2.893 -30.159  1.00  0.00     0.011 A 
ATOM     24  N   UNL     1     -21.461  -5.075 -32.475  1.00  0.00    -0.361 N 
ATOM     25  C   UNL     1     -23.082  -3.222 -32.958  1.00  0.00     0.026 A 
ATOM     26  C   UNL     1     -23.819  -2.057 -30.963  1.00  0.00     0.001 A 
ATOM     27  C   UNL     1     -23.842  -2.222 -32.344  1.00  0.00     0.002 A 
ATOM     28  H   UNL     1     -21.291  -5.383 -33.422  1.00  0.00     0.166 HD
ENDBRANCH   6  19
BRANCH   4  29
ATOM     29  C   UNL     1     -18.468  -7.412 -26.886  1.00  0.00     0.250 C 
ATOM     30  O   UNL     1     -17.749  -6.763 -26.113  1.00  0.00    -0.272 OA
BRANCH  29  31
ATOM     31  C   UNL     1     -17.967  -8.783 -27.412  1.00  0.00     0.135 C 
ATOM     32  N   UNL     1     -17.355  -8.778 -28.733  1.00  0.00    -0.322 N 
ATOM     33  C   UNL     1     -19.192  -9.701 -27.654  1.00  0.00     0.156 C 
ATOM     34  C   UNL     1     -17.830  -9.803 -29.523  1.00  0.00     0.315 C 
ATOM     35  N   UNL     1     -18.838 -10.443 -28.839  1.00  0.00    -0.335 N 
ATOM     36  C   UNL     1     -17.033  -9.429 -26.380  1.00  0.00     0.047 C 
ATOM     37  H   UNL     1     -16.512  -8.301 -29.024  1.00  0.00     0.166 HD
ATOM     38  O   UNL     1     -17.421 -10.084 -30.632  1.00  0.00    -0.249 OA
ATOM     39  H   UNL     1     -19.446 -11.079 -29.338  1.00  0.00     0.165 HD
ENDBRANCH  29  31
ENDBRANCH   4  29
TORSDOF 4
ENDMDL
MODEL 20
REMARK VINA RESULT:    -8.046      2.933      6.901
REMARK INTER + INTRA:         -11.059
REMARK INTER:                  -9.993
REMARK INTRA:                  -1.066
REMARK UNBOUND:                -1.131
REMARK SMILES C[C@]1(C(=O)N2C[C@@H](c3cc4c(cc3F)OCCO4)O[C@](C)(c3c[nH]c4ccccc34)C2)CNC(=O)N1
REMARK SMILES IDX 19 1 7 2 6 3 5 4 31 5 20 6 21 7 8 8 9 9 13 10 10 11 12 12
REMARK SMILES IDX 11 13 18 14 15 15 17 16 16 17 14 18 22 19 30 20 23 21 25 22
REMARK SMILES IDX 29 23 24 24 26 25 28 26 27 27 3 29 4 30 2 31 36 32 32 33
REMARK SMILES IDX 34 34 33 35 1 36 35 38
REMARK H PARENT 24 28 36 37 33 39
ROOT
ATOM      1  O   UNL     1     -21.714  -6.223 -28.651  1.00  0.00    -0.359 OA
ATOM      2  C   UNL     1     -22.617  -6.907 -27.781  1.00  0.00     0.172 C 
ATOM      3  C   UNL     1     -21.893  -7.484 -26.553  1.00  0.00     0.156 C 
ATOM      4  N   UNL     1     -20.858  -8.450 -26.939  1.00  0.00    -0.334 N 
ATOM      5  C   UNL     1     -20.429  -8.366 -28.338  1.00  0.00     0.159 C 
ATOM      6  C   UNL     1     -20.490  -6.926 -28.963  1.00  0.00     0.111 C 
ATOM      7  C   UNL     1     -19.354  -6.065 -28.381  1.00  0.00     0.050 C 
ENDROOT
BRANCH   2   8
ATOM      8  C   UNL     1     -23.714  -5.942 -27.393  1.00  0.00     0.022 A 
ATOM      9  C   UNL     1     -25.051  -6.227 -27.712  1.00  0.00     0.060 A 
ATOM     10  C   UNL     1     -23.435  -4.758 -26.699  1.00  0.00     0.133 A 
ATOM     11  C   UNL     1     -26.070  -5.350 -27.338  1.00  0.00     0.161 A 
ATOM     12  C   UNL     1     -24.444  -3.870 -26.335  1.00  0.00     0.090 A 
ATOM     13  C   UNL     1     -25.763  -4.160 -26.670  1.00  0.00     0.164 A 
ATOM     14  O   UNL     1     -27.353  -5.723 -27.656  1.00  0.00    -0.486 OA
ATOM     15  O   UNL     1     -26.711  -3.242 -26.301  1.00  0.00    -0.486 OA
ATOM     16  C   UNL     1     -28.314  -4.953 -26.924  1.00  0.00     0.271 C 
ATOM     17  C   UNL     1     -27.960  -3.477 -26.963  1.00  0.00     0.271 C 
ATOM     18  F   UNL     1     -22.172  -4.459 -26.355  1.00  0.00    -0.206 F 
ENDBRANCH   2   8
BRANCH   6  19
ATOM     19  C   UNL     1     -20.317  -7.011 -30.482  1.00  0.00     0.011 A 
ATOM     20  C   UNL     1     -20.785  -6.073 -31.473  1.00  0.00     0.006 A 
ATOM     21  C   UNL     1     -19.639  -7.999 -31.183  1.00  0.00     0.090 A 
ATOM     22  C   UNL     1     -20.406  -6.554 -32.728  1.00  0.00     0.046 A 
ATOM     23  C   UNL     1     -21.492  -4.852 -31.424  1.00  0.00     0.011 A 
ATOM     24  N   UNL     1     -19.717  -7.723 -32.522  1.00  0.00    -0.361 N 
ATOM     25  C   UNL     1     -20.710  -5.895 -33.924  1.00  0.00     0.026 A 
ATOM     26  C   UNL     1     -21.802  -4.175 -32.609  1.00  0.00     0.001 A 
ATOM     27  C   UNL     1     -21.417  -4.692 -33.842  1.00  0.00     0.002 A 
ATOM     28  H   UNL     1     -19.318  -8.286 -33.261  1.00  0.00     0.166 HD
ENDBRANCH   6  19
BRANCH   4  29
ATOM     29  C   UNL     1     -20.480  -9.396 -25.997  1.00  0.00     0.250 C 
ATOM     30  O   UNL     1     -21.319 -10.208 -25.582  1.00  0.00    -0.272 OA
BRANCH  29  31
ATOM     31  C   UNL     1     -19.073  -9.366 -25.347  1.00  0.00     0.135 C 
ATOM     32  N   UNL     1     -18.582  -8.056 -24.942  1.00  0.00    -0.322 N 
ATOM     33  C   UNL     1     -18.021  -9.761 -26.415  1.00  0.00     0.156 C 
ATOM     34  C   UNL     1     -17.278  -7.851 -25.340  1.00  0.00     0.315 C 
ATOM     35  N   UNL     1     -16.889  -8.921 -26.112  1.00  0.00    -0.335 N 
ATOM     36  C   UNL     1     -19.016 -10.356 -24.175  1.00  0.00     0.047 C 
ATOM     37  H   UNL     1     -18.972  -7.436 -24.246  1.00  0.00     0.166 HD
ATOM     38  O   UNL     1     -16.598  -6.885 -25.053  1.00  0.00    -0.249 OA
ATOM     39  H   UNL     1     -16.045  -8.850 -26.665  1.00  0.00     0.165 HD
ENDBRANCH  29  31
ENDBRANCH   4  29
TORSDOF 4
ENDMDL
