REMARK SMILES C[C@]1(C(=O)N2C[C@@H](c3cc4c(cc3F)OCCO4)O[C@](C)(c3c[nH]c4ccccc34)C2)CNC(=O)N1
REMARK SMILES IDX 19 1 7 2 6 3 5 4 31 5 20 6 21 7 8 8 9 9 13 10 10 11 12 12
REMARK SMILES IDX 11 13 18 14 15 15 17 16 16 17 14 18 22 19 30 20 23 21 25 22
REMARK SMILES IDX 29 23 24 24 26 25 28 26 27 27 3 29 4 30 2 31 36 32 32 33
REMARK SMILES IDX 34 34 33 35 1 36 35 38
REMARK H PARENT 24 28 36 37 33 39
ROOT
ATOM      1  O   UNL     1       0.288   0.919  -0.517  1.00  0.00    -0.359 OA
ATOM      2  C   UNL     1       0.949  -0.218   0.040  1.00  0.00     0.172 C 
ATOM      3  C   UNL     1       0.594  -1.508  -0.719  1.00  0.00     0.156 C 
ATOM      4  N   UNL     1      -0.846  -1.785  -0.672  1.00  0.00    -0.334 N 
ATOM      5  C   UNL     1      -1.683  -0.635  -0.316  1.00  0.00     0.159 C 
ATOM      6  C   UNL     1      -1.124   0.758  -0.779  1.00  0.00     0.111 C 
ATOM      7  C   UNL     1      -1.283   0.894  -2.305  1.00  0.00     0.050 C 
ENDROOT
BRANCH   2   8
ATOM      8  C   UNL     1       2.435   0.055   0.034  1.00  0.00     0.022 A 
ATOM      9  C   UNL     1       3.161   0.043   1.236  1.00  0.00     0.060 A 
ATOM     10  C   UNL     1       3.128   0.308  -1.157  1.00  0.00     0.133 A 
ATOM     11  C   UNL     1       4.537   0.274   1.233  1.00  0.00     0.161 A 
ATOM     12  C   UNL     1       4.498   0.554  -1.167  1.00  0.00     0.090 A 
ATOM     13  C   UNL     1       5.201   0.553   0.034  1.00  0.00     0.164 A 
ATOM     14  O   UNL     1       5.176   0.208   2.447  1.00  0.00    -0.486 OA
ATOM     15  O   UNL     1       6.544   0.817  -0.035  1.00  0.00    -0.486 OA
ATOM     16  C   UNL     1       6.595   0.100   2.282  1.00  0.00     0.271 C 
ATOM     17  C   UNL     1       7.093   1.104   1.257  1.00  0.00     0.271 C 
ATOM     18  F   UNL     1       2.475   0.306  -2.330  1.00  0.00    -0.206 F 
ENDBRANCH   2   8
BRANCH   6  19
ATOM     19  C   UNL     1      -1.907   1.884  -0.099  1.00  0.00     0.011 A 
ATOM     20  C   UNL     1      -1.417   3.184   0.290  1.00  0.00     0.006 A 
ATOM     21  C   UNL     1      -3.254   1.870   0.236  1.00  0.00     0.090 A 
ATOM     22  C   UNL     1      -2.475   3.880   0.878  1.00  0.00     0.046 A 
ATOM     23  C   UNL     1      -0.171   3.842   0.194  1.00  0.00     0.011 A 
ATOM     24  N   UNL     1      -3.574   3.059   0.835  1.00  0.00    -0.361 N 
ATOM     25  C   UNL     1      -2.349   5.178   1.385  1.00  0.00     0.026 A 
ATOM     26  C   UNL     1      -0.026   5.142   0.691  1.00  0.00     0.001 A 
ATOM     27  C   UNL     1      -1.101   5.799   1.280  1.00  0.00     0.002 A 
ATOM     28  H   UNL     1      -4.487   3.311   1.187  1.00  0.00     0.166 HD
ENDBRANCH   6  19
BRANCH   4  29
ATOM     29  C   UNL     1      -1.253  -3.099  -0.853  1.00  0.00     0.250 C 
ATOM     30  O   UNL     1      -0.429  -3.943  -1.232  1.00  0.00    -0.272 OA
BRANCH  29  31
ATOM     31  C   UNL     1      -2.746  -3.502  -0.734  1.00  0.00     0.135 C 
ATOM     32  N   UNL     1      -3.458  -2.989   0.428  1.00  0.00    -0.322 N 
ATOM     33  C   UNL     1      -2.831  -5.030  -0.485  1.00  0.00     0.156 C 
ATOM     34  C   UNL     1      -4.204  -3.969   1.047  1.00  0.00     0.315 C 
ATOM     35  N   UNL     1      -3.938  -5.169   0.429  1.00  0.00    -0.335 N 
ATOM     36  C   UNL     1      -3.488  -3.148  -2.030  1.00  0.00     0.047 C 
ATOM     37  H   UNL     1      -3.648  -2.024   0.662  1.00  0.00     0.166 HD
ATOM     38  O   UNL     1      -4.964  -3.792   1.979  1.00  0.00    -0.249 OA
ATOM     39  H   UNL     1      -4.226  -6.029   0.877  1.00  0.00     0.165 HD
ENDBRANCH  29  31
ENDBRANCH   4  29
TORSDOF 4
