MODEL 1
REMARK VINA RESULT:   -10.145      0.000      0.000
REMARK INTER + INTRA:         -13.607
REMARK INTER:                 -12.517
REMARK INTRA:                  -1.090
REMARK UNBOUND:                -1.090
REMARK SMILES O=C1CCC(=O)N1c1cc(F)cc(-c2nc(Nc3ccc4[nH]ncc4c3)c3ccccc3n2)c1
REMARK SMILES IDX 14 1 33 2 32 3 27 4 28 5 29 6 30 7 31 8 16 9 15 10 13 11
REMARK SMILES IDX 8 12 34 13 9 14 10 15 12 16 11 17 7 18 5 19 4 20 2 21 3 22
REMARK SMILES IDX 6 23 1 24 17 25 18 27 26 28 19 29 25 30 20 31 21 32 24 33
REMARK SMILES IDX 22 34 23 35
REMARK H PARENT 17 26 22 36
ROOT
ATOM      1  C   UNL     1     -21.434  -4.511 -29.129  1.00  0.00     0.162 A 
ATOM      2  N   UNL     1     -20.193  -4.204 -28.728  1.00  0.00    -0.228 NA
ATOM      3  C   UNL     1     -19.919  -4.308 -27.426  1.00  0.00     0.076 A 
ATOM      4  C   UNL     1     -20.863  -4.730 -26.483  1.00  0.00     0.043 A 
ATOM      5  C   UNL     1     -20.500  -4.789 -25.112  1.00  0.00     0.014 A 
ATOM      6  C   UNL     1     -19.213  -4.449 -24.698  1.00  0.00     0.001 A 
ATOM      7  C   UNL     1     -18.282  -4.039 -25.641  1.00  0.00     0.002 A 
ATOM      8  C   UNL     1     -18.643  -3.975 -26.988  1.00  0.00     0.029 A 
ATOM      9  C   UNL     1     -22.126  -5.048 -27.006  1.00  0.00     0.142 A 
ATOM     10  N   UNL     1     -22.415  -4.920 -28.313  1.00  0.00    -0.210 NA
ENDROOT
BRANCH   1  11
ATOM     11  C   UNL     1     -21.747  -4.393 -30.569  1.00  0.00     0.024 A 
ATOM     12  C   UNL     1     -21.207  -4.917 -32.943  1.00  0.00     0.055 A 
ATOM     13  C   UNL     1     -20.932  -5.000 -31.561  1.00  0.00     0.039 A 
ATOM     14  C   UNL     1     -22.345  -4.193 -33.316  1.00  0.00     0.066 A 
ATOM     15  C   UNL     1     -23.155  -3.588 -32.360  1.00  0.00     0.126 A 
ATOM     16  C   UNL     1     -22.869  -3.680 -31.007  1.00  0.00     0.051 A 
ATOM     17  F   UNL     1     -24.236  -2.903 -32.754  1.00  0.00    -0.207 F 
BRANCH  12  18
ATOM     18  N   UNL     1     -20.372  -5.561 -33.916  1.00  0.00    -0.250 N 
ATOM     19  C   UNL     1     -20.122  -6.916 -33.971  1.00  0.00     0.234 C 
ATOM     20  C   UNL     1     -19.374  -7.225 -35.230  1.00  0.00     0.111 C 
ATOM     21  C   UNL     1     -19.708  -4.905 -34.934  1.00  0.00     0.234 C 
ATOM     22  C   UNL     1     -18.852  -5.887 -35.675  1.00  0.00     0.111 C 
ATOM     23  O   UNL     1     -20.416  -7.797 -33.173  1.00  0.00    -0.274 OA
ATOM     24  O   UNL     1     -19.740  -3.723 -35.254  1.00  0.00    -0.274 OA
ENDBRANCH  12  18
ENDBRANCH   1  11
BRANCH   9  25
ATOM     25  N   UNL     1     -23.164  -5.479 -26.155  1.00  0.00    -0.340 N 
ATOM     26  H   UNL     1     -22.832  -5.832 -25.270  1.00  0.00     0.168 HD
BRANCH  25  27
ATOM     27  C   UNL     1     -24.502  -5.033 -26.142  1.00  0.00     0.040 A 
ATOM     28  C   UNL     1     -25.467  -5.784 -26.840  1.00  0.00     0.038 A 
ATOM     29  C   UNL     1     -24.890  -3.835 -25.529  1.00  0.00     0.028 A 
ATOM     30  C   UNL     1     -26.810  -5.363 -26.844  1.00  0.00     0.022 A 
ATOM     31  C   UNL     1     -26.223  -3.393 -25.518  1.00  0.00     0.030 A 
ATOM     32  C   UNL     1     -27.156  -4.189 -26.187  1.00  0.00     0.065 A 
ATOM     33  C   UNL     1     -28.028  -5.835 -27.387  1.00  0.00     0.143 A 
ATOM     34  N   UNL     1     -28.509  -4.058 -26.368  1.00  0.00    -0.278 N 
ATOM     35  N   UNL     1     -29.070  -5.055 -27.076  1.00  0.00    -0.183 NA
ATOM     36  H   UNL     1     -29.110  -3.312 -26.033  1.00  0.00     0.190 HD
ENDBRANCH  25  27
ENDBRANCH   9  25
TORSDOF 4
ENDMDL
MODEL 2
REMARK VINA RESULT:   -10.026      0.129      1.305
REMARK INTER + INTRA:         -13.460
REMARK INTER:                 -12.477
REMARK INTRA:                  -0.984
REMARK UNBOUND:                -1.090
REMARK SMILES O=C1CCC(=O)N1c1cc(F)cc(-c2nc(Nc3ccc4[nH]ncc4c3)c3ccccc3n2)c1
REMARK SMILES IDX 14 1 33 2 32 3 27 4 28 5 29 6 30 7 31 8 16 9 15 10 13 11
REMARK SMILES IDX 8 12 34 13 9 14 10 15 12 16 11 17 7 18 5 19 4 20 2 21 3 22
REMARK SMILES IDX 6 23 1 24 17 25 18 27 26 28 19 29 25 30 20 31 21 32 24 33
REMARK SMILES IDX 22 34 23 35
REMARK H PARENT 17 26 22 36
ROOT
ATOM      1  C   UNL     1     -21.407  -4.501 -29.092  1.00  0.00     0.162 A 
ATOM      2  N   UNL     1     -20.166  -4.177 -28.703  1.00  0.00    -0.228 NA
ATOM      3  C   UNL     1     -19.875  -4.285 -27.405  1.00  0.00     0.076 A 
ATOM      4  C   UNL     1     -20.800  -4.730 -26.454  1.00  0.00     0.043 A 
ATOM      5  C   UNL     1     -20.420  -4.793 -25.089  1.00  0.00     0.014 A 
ATOM      6  C   UNL     1     -19.135  -4.434 -24.687  1.00  0.00     0.001 A 
ATOM      7  C   UNL     1     -18.222  -4.002 -25.637  1.00  0.00     0.002 A 
ATOM      8  C   UNL     1     -18.599  -3.934 -26.980  1.00  0.00     0.029 A 
ATOM      9  C   UNL     1     -22.064  -5.065 -26.964  1.00  0.00     0.142 A 
ATOM     10  N   UNL     1     -22.371  -4.932 -28.267  1.00  0.00    -0.210 NA
ENDROOT
BRANCH   1  11
ATOM     11  C   UNL     1     -21.738  -4.377 -30.527  1.00  0.00     0.024 A 
ATOM     12  C   UNL     1     -21.252  -4.925 -32.907  1.00  0.00     0.055 A 
ATOM     13  C   UNL     1     -20.958  -5.011 -31.530  1.00  0.00     0.039 A 
ATOM     14  C   UNL     1     -22.373  -4.167 -33.265  1.00  0.00     0.066 A 
ATOM     15  C   UNL     1     -23.149  -3.535 -32.298  1.00  0.00     0.126 A 
ATOM     16  C   UNL     1     -22.845  -3.633 -30.950  1.00  0.00     0.051 A 
ATOM     17  F   UNL     1     -24.215  -2.819 -32.677  1.00  0.00    -0.207 F 
BRANCH  12  18
ATOM     18  N   UNL     1     -20.451  -5.596 -33.892  1.00  0.00    -0.250 N 
ATOM     19  C   UNL     1     -19.873  -4.989 -34.987  1.00  0.00     0.234 C 
ATOM     20  C   UNL     1     -18.963  -5.966 -35.662  1.00  0.00     0.111 C 
ATOM     21  C   UNL     1     -20.151  -6.943 -33.870  1.00  0.00     0.234 C 
ATOM     22  C   UNL     1     -19.393  -7.298 -35.113  1.00  0.00     0.111 C 
ATOM     23  O   UNL     1     -20.020  -3.853 -35.418  1.00  0.00    -0.274 OA
ATOM     24  O   UNL     1     -20.419  -7.790 -33.027  1.00  0.00    -0.274 OA
ENDBRANCH  12  18
ENDBRANCH   1  11
BRANCH   9  25
ATOM     25  N   UNL     1     -23.084  -5.519 -26.105  1.00  0.00    -0.340 N 
ATOM     26  H   UNL     1     -22.737  -5.866 -25.224  1.00  0.00     0.168 HD
BRANCH  25  27
ATOM     27  C   UNL     1     -24.432  -5.103 -26.080  1.00  0.00     0.040 A 
ATOM     28  C   UNL     1     -25.387  -5.875 -26.770  1.00  0.00     0.038 A 
ATOM     29  C   UNL     1     -24.841  -3.915 -25.461  1.00  0.00     0.028 A 
ATOM     30  C   UNL     1     -26.739  -5.483 -26.762  1.00  0.00     0.022 A 
ATOM     31  C   UNL     1     -26.183  -3.502 -25.439  1.00  0.00     0.030 A 
ATOM     32  C   UNL     1     -27.104  -4.318 -26.100  1.00  0.00     0.065 A 
ATOM     33  C   UNL     1     -27.950  -5.981 -27.293  1.00  0.00     0.143 A 
ATOM     34  N   UNL     1     -28.462  -4.216 -26.269  1.00  0.00    -0.278 N 
ATOM     35  N   UNL     1     -29.007  -5.225 -26.973  1.00  0.00    -0.183 NA
ATOM     36  H   UNL     1     -29.075  -3.484 -25.927  1.00  0.00     0.190 HD
ENDBRANCH  25  27
ENDBRANCH   9  25
TORSDOF 4
ENDMDL
MODEL 3
REMARK VINA RESULT:    -9.689      2.838      5.950
REMARK INTER + INTRA:         -13.044
REMARK INTER:                 -11.820
REMARK INTRA:                  -1.224
REMARK UNBOUND:                -1.090
REMARK SMILES O=C1CCC(=O)N1c1cc(F)cc(-c2nc(Nc3ccc4[nH]ncc4c3)c3ccccc3n2)c1
REMARK SMILES IDX 14 1 33 2 32 3 27 4 28 5 29 6 30 7 31 8 16 9 15 10 13 11
REMARK SMILES IDX 8 12 34 13 9 14 10 15 12 16 11 17 7 18 5 19 4 20 2 21 3 22
REMARK SMILES IDX 6 23 1 24 17 25 18 27 26 28 19 29 25 30 20 31 21 32 24 33
REMARK SMILES IDX 22 34 23 35
REMARK H PARENT 17 26 22 36
ROOT
ATOM      1  C   UNL     1     -21.269  -5.256 -30.568  1.00  0.00     0.162 A 
ATOM      2  N   UNL     1     -22.561  -5.464 -30.281  1.00  0.00    -0.228 NA
ATOM      3  C   UNL     1     -22.981  -5.152 -29.054  1.00  0.00     0.076 A 
ATOM      4  C   UNL     1     -22.137  -4.613 -28.076  1.00  0.00     0.043 A 
ATOM      5  C   UNL     1     -22.656  -4.331 -26.786  1.00  0.00     0.014 A 
ATOM      6  C   UNL     1     -23.996  -4.569 -26.487  1.00  0.00     0.001 A 
ATOM      7  C   UNL     1     -24.827  -5.096 -27.463  1.00  0.00     0.002 A 
ATOM      8  C   UNL     1     -24.314  -5.379 -28.731  1.00  0.00     0.029 A 
ATOM      9  C   UNL     1     -20.808  -4.413 -28.482  1.00  0.00     0.142 A 
ATOM     10  N   UNL     1     -20.373  -4.751 -29.709  1.00  0.00    -0.210 NA
ENDROOT
BRANCH   1  11
ATOM     11  C   UNL     1     -20.795  -5.606 -31.924  1.00  0.00     0.024 A 
ATOM     12  C   UNL     1     -19.913  -7.290 -33.532  1.00  0.00     0.055 A 
ATOM     13  C   UNL     1     -20.359  -6.918 -32.246  1.00  0.00     0.039 A 
ATOM     14  C   UNL     1     -19.911  -6.290 -34.512  1.00  0.00     0.066 A 
ATOM     15  C   UNL     1     -20.332  -4.997 -34.216  1.00  0.00     0.126 A 
ATOM     16  C   UNL     1     -20.768  -4.651 -32.947  1.00  0.00     0.051 A 
ATOM     17  F   UNL     1     -20.317  -4.066 -35.178  1.00  0.00    -0.207 F 
BRANCH  12  18
ATOM     18  N   UNL     1     -19.498  -8.632 -33.827  1.00  0.00    -0.250 N 
ATOM     19  C   UNL     1     -18.461  -9.293 -33.203  1.00  0.00     0.234 C 
ATOM     20  C   UNL     1     -18.463 -10.725 -33.638  1.00  0.00     0.111 C 
ATOM     21  C   UNL     1     -20.090  -9.443 -34.774  1.00  0.00     0.234 C 
ATOM     22  C   UNL     1     -19.318 -10.724 -34.875  1.00  0.00     0.111 C 
ATOM     23  O   UNL     1     -17.624  -8.868 -32.418  1.00  0.00    -0.274 OA
ATOM     24  O   UNL     1     -21.075  -9.240 -35.473  1.00  0.00    -0.274 OA
ENDBRANCH  12  18
ENDBRANCH   1  11
BRANCH   9  25
ATOM     25  N   UNL     1     -19.859  -3.883 -27.586  1.00  0.00    -0.340 N 
ATOM     26  H   UNL     1     -20.149  -3.010 -27.170  1.00  0.00     0.168 HD
BRANCH  25  27
ATOM     27  C   UNL     1     -18.893  -4.592 -26.842  1.00  0.00     0.040 A 
ATOM     28  C   UNL     1     -19.035  -5.987 -26.712  1.00  0.00     0.038 A 
ATOM     29  C   UNL     1     -17.845  -3.952 -26.167  1.00  0.00     0.028 A 
ATOM     30  C   UNL     1     -18.085  -6.719 -25.975  1.00  0.00     0.022 A 
ATOM     31  C   UNL     1     -16.885  -4.660 -25.426  1.00  0.00     0.030 A 
ATOM     32  C   UNL     1     -17.039  -6.047 -25.357  1.00  0.00     0.065 A 
ATOM     33  C   UNL     1     -17.875  -8.078 -25.646  1.00  0.00     0.143 A 
ATOM     34  N   UNL     1     -16.300  -7.021 -24.735  1.00  0.00    -0.278 N 
ATOM     35  N   UNL     1     -16.772  -8.268 -24.911  1.00  0.00    -0.183 NA
ATOM     36  H   UNL     1     -15.461  -6.900 -24.178  1.00  0.00     0.190 HD
ENDBRANCH  25  27
ENDBRANCH   9  25
TORSDOF 4
ENDMDL
MODEL 4
REMARK VINA RESULT:    -9.588      4.417      8.932
REMARK INTER + INTRA:         -12.920
REMARK INTER:                 -12.277
REMARK INTRA:                  -0.643
REMARK UNBOUND:                -1.090
REMARK SMILES O=C1CCC(=O)N1c1cc(F)cc(-c2nc(Nc3ccc4[nH]ncc4c3)c3ccccc3n2)c1
REMARK SMILES IDX 14 1 33 2 32 3 27 4 28 5 29 6 30 7 31 8 16 9 15 10 13 11
REMARK SMILES IDX 8 12 34 13 9 14 10 15 12 16 11 17 7 18 5 19 4 20 2 21 3 22
REMARK SMILES IDX 6 23 1 24 17 25 18 27 26 28 19 29 25 30 20 31 21 32 24 33
REMARK SMILES IDX 22 34 23 35
REMARK H PARENT 17 26 22 36
ROOT
ATOM      1  C   UNL     1     -20.749  -4.773 -29.023  1.00  0.00     0.162 A 
ATOM      2  N   UNL     1     -21.550  -3.701 -29.094  1.00  0.00    -0.228 NA
ATOM      3  C   UNL     1     -22.220  -3.501 -30.231  1.00  0.00     0.076 A 
ATOM      4  C   UNL     1     -22.127  -4.364 -31.329  1.00  0.00     0.043 A 
ATOM      5  C   UNL     1     -22.853  -4.068 -32.511  1.00  0.00     0.014 A 
ATOM      6  C   UNL     1     -23.668  -2.940 -32.586  1.00  0.00     0.001 A 
ATOM      7  C   UNL     1     -23.760  -2.094 -31.491  1.00  0.00     0.002 A 
ATOM      8  C   UNL     1     -23.040  -2.383 -30.330  1.00  0.00     0.029 A 
ATOM      9  C   UNL     1     -21.280  -5.469 -31.147  1.00  0.00     0.142 A 
ATOM     10  N   UNL     1     -20.581  -5.660 -30.014  1.00  0.00    -0.210 NA
ENDROOT
BRANCH   1  11
ATOM     11  C   UNL     1     -19.999  -4.997 -27.770  1.00  0.00     0.024 A 
ATOM     12  C   UNL     1     -19.099  -6.549 -26.043  1.00  0.00     0.055 A 
ATOM     13  C   UNL     1     -19.820  -6.298 -27.230  1.00  0.00     0.039 A 
ATOM     14  C   UNL     1     -18.551  -5.438 -25.392  1.00  0.00     0.066 A 
ATOM     15  C   UNL     1     -18.718  -4.154 -25.903  1.00  0.00     0.126 A 
ATOM     16  C   UNL     1     -19.428  -3.927 -27.071  1.00  0.00     0.051 A 
ATOM     17  F   UNL     1     -18.179  -3.114 -25.253  1.00  0.00    -0.207 F 
BRANCH  12  18
ATOM     18  N   UNL     1     -18.921  -7.881 -25.538  1.00  0.00    -0.250 N 
ATOM     19  C   UNL     1     -17.733  -8.391 -25.058  1.00  0.00     0.234 C 
ATOM     20  C   UNL     1     -17.990  -9.731 -24.444  1.00  0.00     0.111 C 
ATOM     21  C   UNL     1     -19.922  -8.829 -25.461  1.00  0.00     0.234 C 
ATOM     22  C   UNL     1     -19.335 -10.125 -24.989  1.00  0.00     0.111 C 
ATOM     23  O   UNL     1     -16.608  -7.910 -25.087  1.00  0.00    -0.274 OA
ATOM     24  O   UNL     1     -21.115  -8.730 -25.720  1.00  0.00    -0.274 OA
ENDBRANCH  12  18
ENDBRANCH   1  11
BRANCH   9  25
ATOM     25  N   UNL     1     -21.097  -6.407 -32.183  1.00  0.00    -0.340 N 
ATOM     26  H   UNL     1     -21.814  -7.116 -32.208  1.00  0.00     0.168 HD
BRANCH  25  27
ATOM     27  C   UNL     1     -20.425  -6.211 -33.407  1.00  0.00     0.040 A 
ATOM     28  C   UNL     1     -20.425  -7.259 -34.349  1.00  0.00     0.038 A 
ATOM     29  C   UNL     1     -19.696  -5.048 -33.688  1.00  0.00     0.028 A 
ATOM     30  C   UNL     1     -19.761  -7.091 -35.579  1.00  0.00     0.022 A 
ATOM     31  C   UNL     1     -19.026  -4.857 -34.908  1.00  0.00     0.030 A 
ATOM     32  C   UNL     1     -19.086  -5.904 -35.830  1.00  0.00     0.065 A 
ATOM     33  C   UNL     1     -19.560  -7.866 -36.745  1.00  0.00     0.143 A 
ATOM     34  N   UNL     1     -18.559  -6.047 -37.089  1.00  0.00    -0.278 N 
ATOM     35  N   UNL     1     -18.848  -7.221 -37.678  1.00  0.00    -0.183 NA
ATOM     36  H   UNL     1     -17.994  -5.379 -37.603  1.00  0.00     0.190 HD
ENDBRANCH  25  27
ENDBRANCH   9  25
TORSDOF 4
ENDMDL
MODEL 5
REMARK VINA RESULT:    -9.335      4.045      8.937
REMARK INTER + INTRA:         -12.608
REMARK INTER:                 -11.220
REMARK INTRA:                  -1.388
REMARK UNBOUND:                -1.090
REMARK SMILES O=C1CCC(=O)N1c1cc(F)cc(-c2nc(Nc3ccc4[nH]ncc4c3)c3ccccc3n2)c1
REMARK SMILES IDX 14 1 33 2 32 3 27 4 28 5 29 6 30 7 31 8 16 9 15 10 13 11
REMARK SMILES IDX 8 12 34 13 9 14 10 15 12 16 11 17 7 18 5 19 4 20 2 21 3 22
REMARK SMILES IDX 6 23 1 24 17 25 18 27 26 28 19 29 25 30 20 31 21 32 24 33
REMARK SMILES IDX 22 34 23 35
REMARK H PARENT 17 26 22 36
ROOT
ATOM      1  C   UNL     1     -23.226  -4.328 -27.164  1.00  0.00     0.162 A 
ATOM      2  N   UNL     1     -23.626  -4.610 -28.411  1.00  0.00    -0.228 NA
ATOM      3  C   UNL     1     -22.698  -4.632 -29.370  1.00  0.00     0.076 A 
ATOM      4  C   UNL     1     -21.342  -4.387 -29.120  1.00  0.00     0.043 A 
ATOM      5  C   UNL     1     -20.421  -4.405 -30.199  1.00  0.00     0.014 A 
ATOM      6  C   UNL     1     -20.846  -4.678 -31.497  1.00  0.00     0.001 A 
ATOM      7  C   UNL     1     -22.189  -4.927 -31.735  1.00  0.00     0.002 A 
ATOM      8  C   UNL     1     -23.096  -4.903 -30.674  1.00  0.00     0.029 A 
ATOM      9  C   UNL     1     -21.023  -4.123 -27.779  1.00  0.00     0.142 A 
ATOM     10  N   UNL     1     -21.958  -4.073 -26.814  1.00  0.00    -0.210 NA
ENDROOT
BRANCH   1  11
ATOM     11  C   UNL     1     -24.251  -4.295 -26.098  1.00  0.00     0.024 A 
ATOM     12  C   UNL     1     -26.456  -5.028 -25.205  1.00  0.00     0.055 A 
ATOM     13  C   UNL     1     -25.462  -5.026 -26.207  1.00  0.00     0.039 A 
ATOM     14  C   UNL     1     -26.200  -4.259 -24.064  1.00  0.00     0.066 A 
ATOM     15  C   UNL     1     -25.020  -3.533 -23.939  1.00  0.00     0.126 A 
ATOM     16  C   UNL     1     -24.056  -3.544 -24.934  1.00  0.00     0.051 A 
ATOM     17  F   UNL     1     -24.809  -2.808 -22.833  1.00  0.00    -0.207 F 
BRANCH  12  18
ATOM     18  N   UNL     1     -27.661  -5.796 -25.340  1.00  0.00    -0.250 N 
ATOM     19  C   UNL     1     -28.784  -5.389 -26.030  1.00  0.00     0.234 C 
ATOM     20  C   UNL     1     -29.747  -6.531 -26.112  1.00  0.00     0.111 C 
ATOM     21  C   UNL     1     -27.854  -7.051 -24.798  1.00  0.00     0.234 C 
ATOM     22  C   UNL     1     -29.266  -7.485 -25.053  1.00  0.00     0.111 C 
ATOM     23  O   UNL     1     -29.045  -4.300 -26.525  1.00  0.00    -0.274 OA
ATOM     24  O   UNL     1     -27.071  -7.768 -24.188  1.00  0.00    -0.274 OA
ENDBRANCH  12  18
ENDBRANCH   1  11
BRANCH   9  25
ATOM     25  N   UNL     1     -19.692  -3.854 -27.401  1.00  0.00    -0.340 N 
ATOM     26  H   UNL     1     -19.511  -2.872 -27.255  1.00  0.00     0.168 HD
BRANCH  25  27
ATOM     27  C   UNL     1     -18.799  -4.719 -26.736  1.00  0.00     0.040 A 
ATOM     28  C   UNL     1     -18.950  -6.108 -26.914  1.00  0.00     0.038 A 
ATOM     29  C   UNL     1     -17.821  -4.253 -25.848  1.00  0.00     0.028 A 
ATOM     30  C   UNL     1     -18.072  -6.995 -26.262  1.00  0.00     0.022 A 
ATOM     31  C   UNL     1     -16.933  -5.116 -25.186  1.00  0.00     0.030 A 
ATOM     32  C   UNL     1     -17.090  -6.484 -25.422  1.00  0.00     0.065 A 
ATOM     33  C   UNL     1     -17.891  -8.396 -26.205  1.00  0.00     0.143 A 
ATOM     34  N   UNL     1     -16.411  -7.579 -24.952  1.00  0.00    -0.278 N 
ATOM     35  N   UNL     1     -16.862  -8.754 -25.428  1.00  0.00    -0.183 NA
ATOM     36  H   UNL     1     -15.629  -7.592 -24.307  1.00  0.00     0.190 HD
ENDBRANCH  25  27
ENDBRANCH   9  25
TORSDOF 4
ENDMDL
MODEL 6
REMARK VINA RESULT:    -9.323      4.277      9.118
REMARK INTER + INTRA:         -12.593
REMARK INTER:                 -11.228
REMARK INTRA:                  -1.365
REMARK UNBOUND:                -1.090
REMARK SMILES O=C1CCC(=O)N1c1cc(F)cc(-c2nc(Nc3ccc4[nH]ncc4c3)c3ccccc3n2)c1
REMARK SMILES IDX 14 1 33 2 32 3 27 4 28 5 29 6 30 7 31 8 16 9 15 10 13 11
REMARK SMILES IDX 8 12 34 13 9 14 10 15 12 16 11 17 7 18 5 19 4 20 2 21 3 22
REMARK SMILES IDX 6 23 1 24 17 25 18 27 26 28 19 29 25 30 20 31 21 32 24 33
REMARK SMILES IDX 22 34 23 35
REMARK H PARENT 17 26 22 36
ROOT
ATOM      1  C   UNL     1     -23.119  -4.241 -26.823  1.00  0.00     0.162 A 
ATOM      2  N   UNL     1     -23.679  -4.463 -28.020  1.00  0.00    -0.228 NA
ATOM      3  C   UNL     1     -22.875  -4.495 -29.085  1.00  0.00     0.076 A 
ATOM      4  C   UNL     1     -21.489  -4.320 -28.995  1.00  0.00     0.043 A 
ATOM      5  C   UNL     1     -20.707  -4.344 -30.178  1.00  0.00     0.014 A 
ATOM      6  C   UNL     1     -21.297  -4.555 -31.422  1.00  0.00     0.001 A 
ATOM      7  C   UNL     1     -22.670  -4.734 -31.501  1.00  0.00     0.002 A 
ATOM      8  C   UNL     1     -23.441  -4.705 -30.337  1.00  0.00     0.029 A 
ATOM      9  C   UNL     1     -20.998  -4.115 -27.696  1.00  0.00     0.142 A 
ATOM     10  N   UNL     1     -21.807  -4.055 -26.624  1.00  0.00    -0.210 NA
ENDROOT
BRANCH   1  11
ATOM     11  C   UNL     1     -24.005  -4.197 -25.641  1.00  0.00     0.024 A 
ATOM     12  C   UNL     1     -25.935  -5.108 -24.358  1.00  0.00     0.055 A 
ATOM     13  C   UNL     1     -25.078  -5.113 -25.479  1.00  0.00     0.039 A 
ATOM     14  C   UNL     1     -25.686  -4.139 -23.379  1.00  0.00     0.066 A 
ATOM     15  C   UNL     1     -24.641  -3.230 -23.520  1.00  0.00     0.126 A 
ATOM     16  C   UNL     1     -23.810  -3.251 -24.628  1.00  0.00     0.051 A 
ATOM     17  F   UNL     1     -24.433  -2.316 -22.564  1.00  0.00    -0.207 F 
BRANCH  12  18
ATOM     18  N   UNL     1     -26.998  -6.062 -24.218  1.00  0.00    -0.250 N 
ATOM     19  C   UNL     1     -26.943  -7.197 -23.437  1.00  0.00     0.234 C 
ATOM     20  C   UNL     1     -28.300  -7.827 -23.394  1.00  0.00     0.111 C 
ATOM     21  C   UNL     1     -28.223  -5.966 -24.848  1.00  0.00     0.234 C 
ATOM     22  C   UNL     1     -29.026  -7.197 -24.550  1.00  0.00     0.111 C 
ATOM     23  O   UNL     1     -25.993  -7.692 -22.843  1.00  0.00    -0.274 OA
ATOM     24  O   UNL     1     -28.671  -5.073 -25.556  1.00  0.00    -0.274 OA
ENDBRANCH  12  18
ENDBRANCH   1  11
BRANCH   9  25
ATOM     25  N   UNL     1     -19.621  -3.919 -27.476  1.00  0.00    -0.340 N 
ATOM     26  H   UNL     1     -19.350  -2.947 -27.488  1.00  0.00     0.168 HD
BRANCH  25  27
ATOM     27  C   UNL     1     -18.736  -4.763 -26.773  1.00  0.00     0.040 A 
ATOM     28  C   UNL     1     -18.854  -6.156 -26.949  1.00  0.00     0.038 A 
ATOM     29  C   UNL     1     -17.802  -4.274 -25.851  1.00  0.00     0.028 A 
ATOM     30  C   UNL     1     -17.985  -7.022 -26.259  1.00  0.00     0.022 A 
ATOM     31  C   UNL     1     -16.923  -5.117 -25.151  1.00  0.00     0.030 A 
ATOM     32  C   UNL     1     -17.045  -6.489 -25.386  1.00  0.00     0.065 A 
ATOM     33  C   UNL     1     -17.779  -8.419 -26.188  1.00  0.00     0.143 A 
ATOM     34  N   UNL     1     -16.363  -7.568 -24.884  1.00  0.00    -0.278 N 
ATOM     35  N   UNL     1     -16.774  -8.754 -25.369  1.00  0.00    -0.183 NA
ATOM     36  H   UNL     1     -15.606  -7.563 -24.209  1.00  0.00     0.190 HD
ENDBRANCH  25  27
ENDBRANCH   9  25
TORSDOF 4
ENDMDL
MODEL 7
REMARK VINA RESULT:    -9.300      3.888      8.799
REMARK INTER + INTRA:         -12.565
REMARK INTER:                 -11.517
REMARK INTRA:                  -1.048
REMARK UNBOUND:                -1.090
REMARK SMILES O=C1CCC(=O)N1c1cc(F)cc(-c2nc(Nc3ccc4[nH]ncc4c3)c3ccccc3n2)c1
REMARK SMILES IDX 14 1 33 2 32 3 27 4 28 5 29 6 30 7 31 8 16 9 15 10 13 11
REMARK SMILES IDX 8 12 34 13 9 14 10 15 12 16 11 17 7 18 5 19 4 20 2 21 3 22
REMARK SMILES IDX 6 23 1 24 17 25 18 27 26 28 19 29 25 30 20 31 21 32 24 33
REMARK SMILES IDX 22 34 23 35
REMARK H PARENT 17 26 22 36
ROOT
ATOM      1  C   UNL     1     -23.178  -4.807 -28.388  1.00  0.00     0.162 A 
ATOM      2  N   UNL     1     -23.557  -4.275 -29.558  1.00  0.00    -0.228 NA
ATOM      3  C   UNL     1     -22.781  -4.500 -30.621  1.00  0.00     0.076 A 
ATOM      4  C   UNL     1     -21.613  -5.269 -30.559  1.00  0.00     0.043 A 
ATOM      5  C   UNL     1     -20.829  -5.440 -31.729  1.00  0.00     0.014 A 
ATOM      6  C   UNL     1     -21.217  -4.867 -32.939  1.00  0.00     0.001 A 
ATOM      7  C   UNL     1     -22.379  -4.114 -32.993  1.00  0.00     0.002 A 
ATOM      8  C   UNL     1     -23.147  -3.940 -31.839  1.00  0.00     0.029 A 
ATOM      9  C   UNL     1     -21.315  -5.798 -29.294  1.00  0.00     0.142 A 
ATOM     10  N   UNL     1     -22.079  -5.553 -28.214  1.00  0.00    -0.210 NA
ENDROOT
BRANCH   1  11
ATOM     11  C   UNL     1     -24.030  -4.557 -27.205  1.00  0.00     0.024 A 
ATOM     12  C   UNL     1     -26.214  -4.787 -26.034  1.00  0.00     0.055 A 
ATOM     13  C   UNL     1     -25.378  -4.998 -27.150  1.00  0.00     0.039 A 
ATOM     14  C   UNL     1     -25.655  -4.105 -24.947  1.00  0.00     0.066 A 
ATOM     15  C   UNL     1     -24.336  -3.661 -24.982  1.00  0.00     0.126 A 
ATOM     16  C   UNL     1     -23.529  -3.878 -26.088  1.00  0.00     0.051 A 
ATOM     17  F   UNL     1     -23.834  -3.012 -23.924  1.00  0.00    -0.207 F 
BRANCH  12  18
ATOM     18  N   UNL     1     -27.567  -5.266 -26.005  1.00  0.00    -0.250 N 
ATOM     19  C   UNL     1     -28.625  -4.684 -26.673  1.00  0.00     0.234 C 
ATOM     20  C   UNL     1     -29.822  -5.575 -26.560  1.00  0.00     0.111 C 
ATOM     21  C   UNL     1     -27.989  -6.379 -25.306  1.00  0.00     0.234 C 
ATOM     22  C   UNL     1     -29.478  -6.499 -25.424  1.00  0.00     0.111 C 
ATOM     23  O   UNL     1     -28.677  -3.622 -27.279  1.00  0.00    -0.274 OA
ATOM     24  O   UNL     1     -27.337  -7.190 -24.659  1.00  0.00    -0.274 OA
ENDBRANCH  12  18
ENDBRANCH   1  11
BRANCH   9  25
ATOM     25  N   UNL     1     -20.161  -6.584 -29.102  1.00  0.00    -0.340 N 
ATOM     26  H   UNL     1     -19.739  -6.888 -29.966  1.00  0.00     0.168 HD
BRANCH  25  27
ATOM     27  C   UNL     1     -19.284  -6.562 -27.998  1.00  0.00     0.040 A 
ATOM     28  C   UNL     1     -18.662  -7.764 -27.608  1.00  0.00     0.038 A 
ATOM     29  C   UNL     1     -19.068  -5.409 -27.231  1.00  0.00     0.028 A 
ATOM     30  C   UNL     1     -17.782  -7.771 -26.510  1.00  0.00     0.022 A 
ATOM     31  C   UNL     1     -18.194  -5.390 -26.132  1.00  0.00     0.030 A 
ATOM     32  C   UNL     1     -17.567  -6.595 -25.804  1.00  0.00     0.065 A 
ATOM     33  C   UNL     1     -16.980  -8.731 -25.850  1.00  0.00     0.143 A 
ATOM     34  N   UNL     1     -16.674  -6.923 -24.816  1.00  0.00    -0.278 N 
ATOM     35  N   UNL     1     -16.284  -8.211 -24.832  1.00  0.00    -0.183 NA
ATOM     36  H   UNL     1     -16.290  -6.315 -24.101  1.00  0.00     0.190 HD
ENDBRANCH  25  27
ENDBRANCH   9  25
TORSDOF 4
ENDMDL
MODEL 8
REMARK VINA RESULT:    -9.256      3.798      8.882
REMARK INTER + INTRA:         -12.511
REMARK INTER:                 -11.357
REMARK INTRA:                  -1.153
REMARK UNBOUND:                -1.090
REMARK SMILES O=C1CCC(=O)N1c1cc(F)cc(-c2nc(Nc3ccc4[nH]ncc4c3)c3ccccc3n2)c1
REMARK SMILES IDX 14 1 33 2 32 3 27 4 28 5 29 6 30 7 31 8 16 9 15 10 13 11
REMARK SMILES IDX 8 12 34 13 9 14 10 15 12 16 11 17 7 18 5 19 4 20 2 21 3 22
REMARK SMILES IDX 6 23 1 24 17 25 18 27 26 28 19 29 25 30 20 31 21 32 24 33
REMARK SMILES IDX 22 34 23 35
REMARK H PARENT 17 26 22 36
ROOT
ATOM      1  C   UNL     1     -23.526  -4.797 -28.154  1.00  0.00     0.162 A 
ATOM      2  N   UNL     1     -23.815  -4.195 -29.316  1.00  0.00    -0.228 NA
ATOM      3  C   UNL     1     -23.030  -4.460 -30.363  1.00  0.00     0.076 A 
ATOM      4  C   UNL     1     -21.943  -5.339 -30.294  1.00  0.00     0.043 A 
ATOM      5  C   UNL     1     -21.143  -5.547 -31.446  1.00  0.00     0.014 A 
ATOM      6  C   UNL     1     -21.435  -4.902 -32.647  1.00  0.00     0.001 A 
ATOM      7  C   UNL     1     -22.518  -4.039 -32.708  1.00  0.00     0.002 A 
ATOM      8  C   UNL     1     -23.302  -3.829 -31.571  1.00  0.00     0.029 A 
ATOM      9  C   UNL     1     -21.738  -5.934 -29.040  1.00  0.00     0.142 A 
ATOM     10  N   UNL     1     -22.509  -5.650 -27.975  1.00  0.00    -0.210 NA
ENDROOT
BRANCH   1  11
ATOM     11  C   UNL     1     -24.387  -4.503 -26.988  1.00  0.00     0.024 A 
ATOM     12  C   UNL     1     -26.520  -4.830 -25.747  1.00  0.00     0.055 A 
ATOM     13  C   UNL     1     -25.678  -5.078 -26.851  1.00  0.00     0.039 A 
ATOM     14  C   UNL     1     -26.027  -3.969 -24.760  1.00  0.00     0.066 A 
ATOM     15  C   UNL     1     -24.766  -3.393 -24.877  1.00  0.00     0.126 A 
ATOM     16  C   UNL     1     -23.952  -3.649 -25.969  1.00  0.00     0.051 A 
ATOM     17  F   UNL     1     -24.327  -2.574 -23.913  1.00  0.00    -0.207 F 
BRANCH  12  18
ATOM     18  N   UNL     1     -27.812  -5.445 -25.632  1.00  0.00    -0.250 N 
ATOM     19  C   UNL     1     -28.897  -5.160 -26.436  1.00  0.00     0.234 C 
ATOM     20  C   UNL     1     -29.992  -6.136 -26.140  1.00  0.00     0.111 C 
ATOM     21  C   UNL     1     -28.139  -6.409 -24.700  1.00  0.00     0.234 C 
ATOM     22  C   UNL     1     -29.600  -6.727 -24.814  1.00  0.00     0.111 C 
ATOM     23  O   UNL     1     -29.039  -4.279 -27.273  1.00  0.00    -0.274 OA
ATOM     24  O   UNL     1     -27.432  -6.968 -23.872  1.00  0.00    -0.274 OA
ENDBRANCH  12  18
ENDBRANCH   1  11
BRANCH   9  25
ATOM     25  N   UNL     1     -20.671  -6.833 -28.842  1.00  0.00    -0.340 N 
ATOM     26  H   UNL     1     -20.436  -7.360 -29.669  1.00  0.00     0.168 HD
BRANCH  25  27
ATOM     27  C   UNL     1     -19.627  -6.729 -27.899  1.00  0.00     0.040 A 
ATOM     28  C   UNL     1     -19.292  -5.454 -27.404  1.00  0.00     0.038 A 
ATOM     29  C   UNL     1     -18.864  -7.833 -27.497  1.00  0.00     0.028 A 
ATOM     30  C   UNL     1     -18.254  -5.321 -26.463  1.00  0.00     0.022 A 
ATOM     31  C   UNL     1     -17.824  -7.727 -26.559  1.00  0.00     0.030 A 
ATOM     32  C   UNL     1     -17.551  -6.450 -26.062  1.00  0.00     0.065 A 
ATOM     33  C   UNL     1     -17.658  -4.261 -25.742  1.00  0.00     0.143 A 
ATOM     34  N   UNL     1     -16.628  -5.999 -25.154  1.00  0.00    -0.278 N 
ATOM     35  N   UNL     1     -16.683  -4.675 -24.924  1.00  0.00    -0.183 NA
ATOM     36  H   UNL     1     -15.933  -6.544 -24.655  1.00  0.00     0.190 HD
ENDBRANCH  25  27
ENDBRANCH   9  25
TORSDOF 4
ENDMDL
MODEL 9
REMARK VINA RESULT:    -9.207      3.857      8.697
REMARK INTER + INTRA:         -12.449
REMARK INTER:                 -11.378
REMARK INTRA:                  -1.071
REMARK UNBOUND:                -1.090
REMARK SMILES O=C1CCC(=O)N1c1cc(F)cc(-c2nc(Nc3ccc4[nH]ncc4c3)c3ccccc3n2)c1
REMARK SMILES IDX 14 1 33 2 32 3 27 4 28 5 29 6 30 7 31 8 16 9 15 10 13 11
REMARK SMILES IDX 8 12 34 13 9 14 10 15 12 16 11 17 7 18 5 19 4 20 2 21 3 22
REMARK SMILES IDX 6 23 1 24 17 25 18 27 26 28 19 29 25 30 20 31 21 32 24 33
REMARK SMILES IDX 22 34 23 35
REMARK H PARENT 17 26 22 36
ROOT
ATOM      1  C   UNL     1     -23.111  -4.796 -28.415  1.00  0.00     0.162 A 
ATOM      2  N   UNL     1     -23.512  -4.284 -29.586  1.00  0.00    -0.228 NA
ATOM      3  C   UNL     1     -22.738  -4.493 -30.653  1.00  0.00     0.076 A 
ATOM      4  C   UNL     1     -21.548  -5.228 -30.594  1.00  0.00     0.043 A 
ATOM      5  C   UNL     1     -20.768  -5.385 -31.769  1.00  0.00     0.014 A 
ATOM      6  C   UNL     1     -21.180  -4.832 -32.980  1.00  0.00     0.001 A 
ATOM      7  C   UNL     1     -22.364  -4.112 -33.030  1.00  0.00     0.002 A 
ATOM      8  C   UNL     1     -23.128  -3.953 -31.873  1.00  0.00     0.029 A 
ATOM      9  C   UNL     1     -21.226  -5.740 -29.327  1.00  0.00     0.142 A 
ATOM     10  N   UNL     1     -21.989  -5.508 -28.244  1.00  0.00    -0.210 NA
ENDROOT
BRANCH   1  11
ATOM     11  C   UNL     1     -23.961  -4.562 -27.228  1.00  0.00     0.024 A 
ATOM     12  C   UNL     1     -26.146  -4.804 -26.060  1.00  0.00     0.055 A 
ATOM     13  C   UNL     1     -25.310  -4.999 -27.180  1.00  0.00     0.039 A 
ATOM     14  C   UNL     1     -25.584  -4.141 -24.963  1.00  0.00     0.066 A 
ATOM     15  C   UNL     1     -24.264  -3.701 -24.991  1.00  0.00     0.126 A 
ATOM     16  C   UNL     1     -23.458  -3.903 -26.100  1.00  0.00     0.051 A 
ATOM     17  F   UNL     1     -23.759  -3.070 -23.923  1.00  0.00    -0.207 F 
BRANCH  12  18
ATOM     18  N   UNL     1     -27.501  -5.278 -26.038  1.00  0.00    -0.250 N 
ATOM     19  C   UNL     1     -27.926  -6.423 -25.398  1.00  0.00     0.234 C 
ATOM     20  C   UNL     1     -29.421  -6.476 -25.434  1.00  0.00     0.111 C 
ATOM     21  C   UNL     1     -28.561  -4.646 -26.655  1.00  0.00     0.234 C 
ATOM     22  C   UNL     1     -29.790  -5.491 -26.510  1.00  0.00     0.111 C 
ATOM     23  O   UNL     1     -27.272  -7.309 -24.864  1.00  0.00    -0.274 OA
ATOM     24  O   UNL     1     -28.594  -3.577 -27.254  1.00  0.00    -0.274 OA
ENDBRANCH  12  18
ENDBRANCH   1  11
BRANCH   9  25
ATOM     25  N   UNL     1     -20.049  -6.491 -29.138  1.00  0.00    -0.340 N 
ATOM     26  H   UNL     1     -19.600  -6.750 -30.003  1.00  0.00     0.168 HD
BRANCH  25  27
ATOM     27  C   UNL     1     -19.194  -6.475 -28.016  1.00  0.00     0.040 A 
ATOM     28  C   UNL     1     -18.619  -7.689 -27.593  1.00  0.00     0.038 A 
ATOM     29  C   UNL     1     -18.959  -5.317 -27.265  1.00  0.00     0.028 A 
ATOM     30  C   UNL     1     -17.762  -7.703 -26.476  1.00  0.00     0.022 A 
ATOM     31  C   UNL     1     -18.108  -5.304 -26.148  1.00  0.00     0.030 A 
ATOM     32  C   UNL     1     -17.525  -6.521 -25.787  1.00  0.00     0.065 A 
ATOM     33  C   UNL     1     -17.004  -8.675 -25.782  1.00  0.00     0.143 A 
ATOM     34  N   UNL     1     -16.663  -6.859 -24.774  1.00  0.00    -0.278 N 
ATOM     35  N   UNL     1     -16.313  -8.158 -24.759  1.00  0.00    -0.183 NA
ATOM     36  H   UNL     1     -16.276  -6.250 -24.062  1.00  0.00     0.190 HD
ENDBRANCH  25  27
ENDBRANCH   9  25
TORSDOF 4
ENDMDL
MODEL 10
REMARK VINA RESULT:    -9.185      3.796      6.727
REMARK INTER + INTRA:         -12.423
REMARK INTER:                 -10.914
REMARK INTRA:                  -1.509
REMARK UNBOUND:                -1.090
REMARK SMILES O=C1CCC(=O)N1c1cc(F)cc(-c2nc(Nc3ccc4[nH]ncc4c3)c3ccccc3n2)c1
REMARK SMILES IDX 14 1 33 2 32 3 27 4 28 5 29 6 30 7 31 8 16 9 15 10 13 11
REMARK SMILES IDX 8 12 34 13 9 14 10 15 12 16 11 17 7 18 5 19 4 20 2 21 3 22
REMARK SMILES IDX 6 23 1 24 17 25 18 27 26 28 19 29 25 30 20 31 21 32 24 33
REMARK SMILES IDX 22 34 23 35
REMARK H PARENT 17 26 22 36
ROOT
ATOM      1  C   UNL     1     -21.141  -5.587 -31.687  1.00  0.00     0.162 A 
ATOM      2  N   UNL     1     -21.895  -4.863 -32.526  1.00  0.00    -0.228 NA
ATOM      3  C   UNL     1     -22.598  -3.852 -32.013  1.00  0.00     0.076 A 
ATOM      4  C   UNL     1     -22.567  -3.518 -30.654  1.00  0.00     0.043 A 
ATOM      5  C   UNL     1     -23.363  -2.443 -30.182  1.00  0.00     0.014 A 
ATOM      6  C   UNL     1     -24.161  -1.707 -31.056  1.00  0.00     0.001 A 
ATOM      7  C   UNL     1     -24.180  -2.039 -32.402  1.00  0.00     0.002 A 
ATOM      8  C   UNL     1     -23.400  -3.102 -32.864  1.00  0.00     0.029 A 
ATOM      9  C   UNL     1     -21.732  -4.323 -29.862  1.00  0.00     0.142 A 
ATOM     10  N   UNL     1     -21.042  -5.360 -30.370  1.00  0.00    -0.210 NA
ENDROOT
BRANCH   1  11
ATOM     11  C   UNL     1     -20.365  -6.713 -32.248  1.00  0.00     0.024 A 
ATOM     12  C   UNL     1     -19.068  -8.813 -31.919  1.00  0.00     0.055 A 
ATOM     13  C   UNL     1     -19.803  -7.718 -31.417  1.00  0.00     0.039 A 
ATOM     14  C   UNL     1     -18.903  -8.877 -33.308  1.00  0.00     0.066 A 
ATOM     15  C   UNL     1     -19.444  -7.900 -34.139  1.00  0.00     0.126 A 
ATOM     16  C   UNL     1     -20.164  -6.833 -33.628  1.00  0.00     0.051 A 
ATOM     17  F   UNL     1     -19.266  -7.995 -35.463  1.00  0.00    -0.207 F 
BRANCH  12  18
ATOM     18  N   UNL     1     -18.531  -9.821 -31.050  1.00  0.00    -0.250 N 
ATOM     19  C   UNL     1     -17.309  -9.748 -30.416  1.00  0.00     0.234 C 
ATOM     20  C   UNL     1     -17.190 -10.886 -29.451  1.00  0.00     0.111 C 
ATOM     21  C   UNL     1     -19.172 -11.001 -30.732  1.00  0.00     0.234 C 
ATOM     22  C   UNL     1     -18.260 -11.846 -29.894  1.00  0.00     0.111 C 
ATOM     23  O   UNL     1     -16.405  -8.934 -30.552  1.00  0.00    -0.274 OA
ATOM     24  O   UNL     1     -20.293 -11.390 -31.038  1.00  0.00    -0.274 OA
ENDBRANCH  12  18
ENDBRANCH   1  11
BRANCH   9  25
ATOM     25  N   UNL     1     -21.621  -4.091 -28.477  1.00  0.00    -0.340 N 
ATOM     26  H   UNL     1     -22.478  -3.762 -28.059  1.00  0.00     0.168 HD
BRANCH  25  27
ATOM     27  C   UNL     1     -20.728  -4.706 -27.574  1.00  0.00     0.040 A 
ATOM     28  C   UNL     1     -19.487  -4.087 -27.329  1.00  0.00     0.038 A 
ATOM     29  C   UNL     1     -20.997  -5.943 -26.975  1.00  0.00     0.028 A 
ATOM     30  C   UNL     1     -18.577  -4.678 -26.433  1.00  0.00     0.022 A 
ATOM     31  C   UNL     1     -20.106  -6.554 -26.078  1.00  0.00     0.030 A 
ATOM     32  C   UNL     1     -18.904  -5.886 -25.830  1.00  0.00     0.065 A 
ATOM     33  C   UNL     1     -17.294  -4.368 -25.927  1.00  0.00     0.143 A 
ATOM     34  N   UNL     1     -17.835  -6.191 -25.027  1.00  0.00    -0.278 N 
ATOM     35  N   UNL     1     -16.850  -5.276 -25.049  1.00  0.00    -0.183 NA
ATOM     36  H   UNL     1     -17.717  -7.008 -24.437  1.00  0.00     0.190 HD
ENDBRANCH  25  27
ENDBRANCH   9  25
TORSDOF 4
ENDMDL
MODEL 11
REMARK VINA RESULT:    -9.035      3.892      6.444
REMARK INTER + INTRA:         -12.237
REMARK INTER:                 -11.348
REMARK INTRA:                  -0.890
REMARK UNBOUND:                -1.090
REMARK SMILES O=C1CCC(=O)N1c1cc(F)cc(-c2nc(Nc3ccc4[nH]ncc4c3)c3ccccc3n2)c1
REMARK SMILES IDX 14 1 33 2 32 3 27 4 28 5 29 6 30 7 31 8 16 9 15 10 13 11
REMARK SMILES IDX 8 12 34 13 9 14 10 15 12 16 11 17 7 18 5 19 4 20 2 21 3 22
REMARK SMILES IDX 6 23 1 24 17 25 18 27 26 28 19 29 25 30 20 31 21 32 24 33
REMARK SMILES IDX 22 34 23 35
REMARK H PARENT 17 26 22 36
ROOT
ATOM      1  C   UNL     1     -20.182  -5.009 -28.109  1.00  0.00     0.162 A 
ATOM      2  N   UNL     1     -20.011  -5.222 -29.421  1.00  0.00    -0.228 NA
ATOM      3  C   UNL     1     -20.952  -4.768 -30.251  1.00  0.00     0.076 A 
ATOM      4  C   UNL     1     -22.086  -4.078 -29.808  1.00  0.00     0.043 A 
ATOM      5  C   UNL     1     -23.054  -3.649 -30.753  1.00  0.00     0.014 A 
ATOM      6  C   UNL     1     -22.881  -3.892 -32.114  1.00  0.00     0.001 A 
ATOM      7  C   UNL     1     -21.751  -4.570 -32.545  1.00  0.00     0.002 A 
ATOM      8  C   UNL     1     -20.802  -4.997 -31.614  1.00  0.00     0.029 A 
ATOM      9  C   UNL     1     -22.162  -3.887 -28.419  1.00  0.00     0.142 A 
ATOM     10  N   UNL     1     -21.229  -4.366 -27.577  1.00  0.00    -0.210 NA
ENDROOT
BRANCH   1  11
ATOM     11  C   UNL     1     -19.146  -5.515 -27.184  1.00  0.00     0.024 A 
ATOM     12  C   UNL     1     -17.884  -7.420 -26.195  1.00  0.00     0.055 A 
ATOM     13  C   UNL     1     -18.873  -6.902 -27.058  1.00  0.00     0.039 A 
ATOM     14  C   UNL     1     -17.158  -6.491 -25.440  1.00  0.00     0.066 A 
ATOM     15  C   UNL     1     -17.413  -5.127 -25.546  1.00  0.00     0.126 A 
ATOM     16  C   UNL     1     -18.388  -4.637 -26.400  1.00  0.00     0.051 A 
ATOM     17  F   UNL     1     -16.700  -4.266 -24.808  1.00  0.00    -0.207 F 
BRANCH  12  18
ATOM     18  N   UNL     1     -17.621  -8.828 -26.109  1.00  0.00    -0.250 N 
ATOM     19  C   UNL     1     -17.305  -9.640 -27.178  1.00  0.00     0.234 C 
ATOM     20  C   UNL     1     -16.911 -10.990 -26.667  1.00  0.00     0.111 C 
ATOM     21  C   UNL     1     -17.645  -9.558 -24.937  1.00  0.00     0.234 C 
ATOM     22  C   UNL     1     -17.433 -11.007 -25.257  1.00  0.00     0.111 C 
ATOM     23  O   UNL     1     -17.320  -9.393 -28.377  1.00  0.00    -0.274 OA
ATOM     24  O   UNL     1     -17.813  -9.181 -23.784  1.00  0.00    -0.274 OA
ENDBRANCH  12  18
ENDBRANCH   1  11
BRANCH   9  25
ATOM     25  N   UNL     1     -23.259  -3.212 -27.850  1.00  0.00    -0.340 N 
ATOM     26  H   UNL     1     -23.631  -2.485 -28.444  1.00  0.00     0.168 HD
BRANCH  25  27
ATOM     27  C   UNL     1     -24.170  -3.709 -26.895  1.00  0.00     0.040 A 
ATOM     28  C   UNL     1     -25.501  -3.943 -27.292  1.00  0.00     0.038 A 
ATOM     29  C   UNL     1     -23.820  -3.906 -25.553  1.00  0.00     0.028 A 
ATOM     30  C   UNL     1     -26.431  -4.439 -26.359  1.00  0.00     0.022 A 
ATOM     31  C   UNL     1     -24.729  -4.401 -24.603  1.00  0.00     0.030 A 
ATOM     32  C   UNL     1     -26.028  -4.658 -25.049  1.00  0.00     0.065 A 
ATOM     33  C   UNL     1     -27.796  -4.808 -26.375  1.00  0.00     0.143 A 
ATOM     34  N   UNL     1     -27.140  -5.136 -24.403  1.00  0.00    -0.278 N 
ATOM     35  N   UNL     1     -28.224  -5.258 -25.190  1.00  0.00    -0.183 NA
ATOM     36  H   UNL     1     -27.223  -5.401 -23.427  1.00  0.00     0.190 HD
ENDBRANCH  25  27
ENDBRANCH   9  25
TORSDOF 4
ENDMDL
MODEL 12
REMARK VINA RESULT:    -9.025      3.912      6.404
REMARK INTER + INTRA:         -12.225
REMARK INTER:                 -11.342
REMARK INTRA:                  -0.883
REMARK UNBOUND:                -1.090
REMARK SMILES O=C1CCC(=O)N1c1cc(F)cc(-c2nc(Nc3ccc4[nH]ncc4c3)c3ccccc3n2)c1
REMARK SMILES IDX 14 1 33 2 32 3 27 4 28 5 29 6 30 7 31 8 16 9 15 10 13 11
REMARK SMILES IDX 8 12 34 13 9 14 10 15 12 16 11 17 7 18 5 19 4 20 2 21 3 22
REMARK SMILES IDX 6 23 1 24 17 25 18 27 26 28 19 29 25 30 20 31 21 32 24 33
REMARK SMILES IDX 22 34 23 35
REMARK H PARENT 17 26 22 36
ROOT
ATOM      1  C   UNL     1     -20.150  -5.047 -28.120  1.00  0.00     0.162 A 
ATOM      2  N   UNL     1     -19.977  -5.263 -29.431  1.00  0.00    -0.228 NA
ATOM      3  C   UNL     1     -20.916  -4.810 -30.264  1.00  0.00     0.076 A 
ATOM      4  C   UNL     1     -22.050  -4.117 -29.824  1.00  0.00     0.043 A 
ATOM      5  C   UNL     1     -23.015  -3.689 -30.772  1.00  0.00     0.014 A 
ATOM      6  C   UNL     1     -22.840  -3.935 -32.132  1.00  0.00     0.001 A 
ATOM      7  C   UNL     1     -21.710  -4.615 -32.560  1.00  0.00     0.002 A 
ATOM      8  C   UNL     1     -20.763  -5.042 -31.626  1.00  0.00     0.029 A 
ATOM      9  C   UNL     1     -22.128  -3.923 -28.436  1.00  0.00     0.142 A 
ATOM     10  N   UNL     1     -21.198  -4.401 -27.591  1.00  0.00    -0.210 NA
ENDROOT
BRANCH   1  11
ATOM     11  C   UNL     1     -19.117  -5.553 -27.192  1.00  0.00     0.024 A 
ATOM     12  C   UNL     1     -17.866  -7.457 -26.189  1.00  0.00     0.055 A 
ATOM     13  C   UNL     1     -18.852  -6.941 -27.055  1.00  0.00     0.039 A 
ATOM     14  C   UNL     1     -17.134  -6.527 -25.442  1.00  0.00     0.066 A 
ATOM     15  C   UNL     1     -17.380  -5.162 -25.558  1.00  0.00     0.126 A 
ATOM     16  C   UNL     1     -18.352  -4.674 -26.416  1.00  0.00     0.051 A 
ATOM     17  F   UNL     1     -16.660  -4.301 -24.828  1.00  0.00    -0.207 F 
BRANCH  12  18
ATOM     18  N   UNL     1     -17.612  -8.867 -26.092  1.00  0.00    -0.250 N 
ATOM     19  C   UNL     1     -17.650  -9.598 -24.923  1.00  0.00     0.234 C 
ATOM     20  C   UNL     1     -17.528 -11.052 -25.252  1.00  0.00     0.111 C 
ATOM     21  C   UNL     1     -17.298  -9.681 -27.162  1.00  0.00     0.234 C 
ATOM     22  C   UNL     1     -16.994 -11.059 -26.658  1.00  0.00     0.111 C 
ATOM     23  O   UNL     1     -17.758  -9.215 -23.765  1.00  0.00    -0.274 OA
ATOM     24  O   UNL     1     -17.243  -9.416 -28.356  1.00  0.00    -0.274 OA
ENDBRANCH  12  18
ENDBRANCH   1  11
BRANCH   9  25
ATOM     25  N   UNL     1     -23.226  -3.245 -27.870  1.00  0.00    -0.340 N 
ATOM     26  H   UNL     1     -23.599  -2.523 -28.468  1.00  0.00     0.168 HD
BRANCH  25  27
ATOM     27  C   UNL     1     -24.135  -3.737 -26.911  1.00  0.00     0.040 A 
ATOM     28  C   UNL     1     -25.474  -3.944 -27.298  1.00  0.00     0.038 A 
ATOM     29  C   UNL     1     -23.775  -3.955 -25.575  1.00  0.00     0.028 A 
ATOM     30  C   UNL     1     -26.403  -4.434 -26.361  1.00  0.00     0.022 A 
ATOM     31  C   UNL     1     -24.683  -4.444 -24.622  1.00  0.00     0.030 A 
ATOM     32  C   UNL     1     -25.990  -4.674 -25.056  1.00  0.00     0.065 A 
ATOM     33  C   UNL     1     -27.774  -4.779 -26.366  1.00  0.00     0.143 A 
ATOM     34  N   UNL     1     -27.104  -5.140 -24.405  1.00  0.00    -0.278 N 
ATOM     35  N   UNL     1     -28.198  -5.235 -25.181  1.00  0.00    -0.183 NA
ATOM     36  H   UNL     1     -27.182  -5.414 -23.431  1.00  0.00     0.190 HD
ENDBRANCH  25  27
ENDBRANCH   9  25
TORSDOF 4
ENDMDL
MODEL 13
REMARK VINA RESULT:    -8.934      4.338      9.629
REMARK INTER + INTRA:         -12.113
REMARK INTER:                 -11.016
REMARK INTRA:                  -1.098
REMARK UNBOUND:                -1.090
REMARK SMILES O=C1CCC(=O)N1c1cc(F)cc(-c2nc(Nc3ccc4[nH]ncc4c3)c3ccccc3n2)c1
REMARK SMILES IDX 14 1 33 2 32 3 27 4 28 5 29 6 30 7 31 8 16 9 15 10 13 11
REMARK SMILES IDX 8 12 34 13 9 14 10 15 12 16 11 17 7 18 5 19 4 20 2 21 3 22
REMARK SMILES IDX 6 23 1 24 17 25 18 27 26 28 19 29 25 30 20 31 21 32 24 33
REMARK SMILES IDX 22 34 23 35
REMARK H PARENT 17 26 22 36
ROOT
ATOM      1  C   UNL     1     -20.460  -6.619 -31.159  1.00  0.00     0.162 A 
ATOM      2  N   UNL     1     -20.681  -5.649 -32.057  1.00  0.00    -0.228 NA
ATOM      3  C   UNL     1     -20.439  -5.925 -33.340  1.00  0.00     0.076 A 
ATOM      4  C   UNL     1     -19.983  -7.175 -33.775  1.00  0.00     0.043 A 
ATOM      5  C   UNL     1     -19.726  -7.381 -35.155  1.00  0.00     0.014 A 
ATOM      6  C   UNL     1     -19.937  -6.362 -36.081  1.00  0.00     0.001 A 
ATOM      7  C   UNL     1     -20.396  -5.129 -35.643  1.00  0.00     0.002 A 
ATOM      8  C   UNL     1     -20.643  -4.925 -34.283  1.00  0.00     0.029 A 
ATOM      9  C   UNL     1     -19.804  -8.129 -32.761  1.00  0.00     0.142 A 
ATOM     10  N   UNL     1     -20.020  -7.848 -31.463  1.00  0.00    -0.210 NA
ENDROOT
BRANCH   1  11
ATOM     11  C   UNL     1     -20.720  -6.318 -29.735  1.00  0.00     0.024 A 
ATOM     12  C   UNL     1     -19.872  -5.833 -27.445  1.00  0.00     0.055 A 
ATOM     13  C   UNL     1     -19.661  -6.134 -28.807  1.00  0.00     0.039 A 
ATOM     14  C   UNL     1     -21.202  -5.721 -27.023  1.00  0.00     0.066 A 
ATOM     15  C   UNL     1     -22.254  -5.902 -27.916  1.00  0.00     0.126 A 
ATOM     16  C   UNL     1     -22.027  -6.196 -29.251  1.00  0.00     0.051 A 
ATOM     17  F   UNL     1     -23.514  -5.787 -27.477  1.00  0.00    -0.207 F 
BRANCH  12  18
ATOM     18  N   UNL     1     -18.776  -5.633 -26.539  1.00  0.00    -0.250 N 
ATOM     19  C   UNL     1     -18.194  -6.622 -25.774  1.00  0.00     0.234 C 
ATOM     20  C   UNL     1     -16.968  -6.070 -25.116  1.00  0.00     0.111 C 
ATOM     21  C   UNL     1     -18.156  -4.420 -26.318  1.00  0.00     0.234 C 
ATOM     22  C   UNL     1     -17.137  -4.581 -25.230  1.00  0.00     0.111 C 
ATOM     23  O   UNL     1     -18.545  -7.780 -25.595  1.00  0.00    -0.274 OA
ATOM     24  O   UNL     1     -18.341  -3.337 -26.859  1.00  0.00    -0.274 OA
ENDBRANCH  12  18
ENDBRANCH   1  11
BRANCH   9  25
ATOM     25  N   UNL     1     -19.342  -9.423 -33.071  1.00  0.00    -0.340 N 
ATOM     26  H   UNL     1     -19.695  -9.772 -33.950  1.00  0.00     0.168 HD
BRANCH  25  27
ATOM     27  C   UNL     1     -18.145 -10.033 -32.639  1.00  0.00     0.040 A 
ATOM     28  C   UNL     1     -17.790 -11.281 -33.186  1.00  0.00     0.038 A 
ATOM     29  C   UNL     1     -17.341  -9.481 -31.633  1.00  0.00     0.028 A 
ATOM     30  C   UNL     1     -16.602 -11.912 -32.772  1.00  0.00     0.022 A 
ATOM     31  C   UNL     1     -16.150 -10.090 -31.204  1.00  0.00     0.030 A 
ATOM     32  C   UNL     1     -15.814 -11.307 -31.802  1.00  0.00     0.065 A 
ATOM     33  C   UNL     1     -15.917 -13.108 -33.089  1.00  0.00     0.143 A 
ATOM     34  N   UNL     1     -14.747 -12.151 -31.625  1.00  0.00    -0.278 N 
ATOM     35  N   UNL     1     -14.772 -13.244 -32.409  1.00  0.00    -0.183 NA
ATOM     36  H   UNL     1     -13.967 -12.037 -30.986  1.00  0.00     0.190 HD
ENDBRANCH  25  27
ENDBRANCH   9  25
TORSDOF 4
ENDMDL
MODEL 14
REMARK VINA RESULT:    -8.882      4.140      9.081
REMARK INTER + INTRA:         -12.049
REMARK INTER:                 -10.646
REMARK INTRA:                  -1.402
REMARK UNBOUND:                -1.090
REMARK SMILES O=C1CCC(=O)N1c1cc(F)cc(-c2nc(Nc3ccc4[nH]ncc4c3)c3ccccc3n2)c1
REMARK SMILES IDX 14 1 33 2 32 3 27 4 28 5 29 6 30 7 31 8 16 9 15 10 13 11
REMARK SMILES IDX 8 12 34 13 9 14 10 15 12 16 11 17 7 18 5 19 4 20 2 21 3 22
REMARK SMILES IDX 6 23 1 24 17 25 18 27 26 28 19 29 25 30 20 31 21 32 24 33
REMARK SMILES IDX 22 34 23 35
REMARK H PARENT 17 26 22 36
ROOT
ATOM      1  C   UNL     1     -23.898  -5.201 -27.853  1.00  0.00     0.162 A 
ATOM      2  N   UNL     1     -23.961  -4.572 -29.034  1.00  0.00    -0.228 NA
ATOM      3  C   UNL     1     -23.007  -4.837 -29.929  1.00  0.00     0.076 A 
ATOM      4  C   UNL     1     -21.967  -5.741 -29.686  1.00  0.00     0.043 A 
ATOM      5  C   UNL     1     -20.977  -5.948 -30.680  1.00  0.00     0.014 A 
ATOM      6  C   UNL     1     -21.037  -5.276 -31.900  1.00  0.00     0.001 A 
ATOM      7  C   UNL     1     -22.075  -4.387 -32.135  1.00  0.00     0.002 A 
ATOM      8  C   UNL     1     -23.046  -4.179 -31.153  1.00  0.00     0.029 A 
ATOM      9  C   UNL     1     -22.002  -6.363 -28.428  1.00  0.00     0.142 A 
ATOM     10  N   UNL     1     -22.946  -6.080 -27.512  1.00  0.00    -0.210 NA
ENDROOT
BRANCH   1  11
ATOM     11  C   UNL     1     -24.948  -4.908 -26.854  1.00  0.00     0.024 A 
ATOM     12  C   UNL     1     -25.780  -5.004 -24.509  1.00  0.00     0.055 A 
ATOM     13  C   UNL     1     -24.805  -5.279 -25.491  1.00  0.00     0.039 A 
ATOM     14  C   UNL     1     -26.932  -4.334 -24.937  1.00  0.00     0.066 A 
ATOM     15  C   UNL     1     -27.093  -3.965 -26.269  1.00  0.00     0.126 A 
ATOM     16  C   UNL     1     -26.124  -4.242 -27.219  1.00  0.00     0.051 A 
ATOM     17  F   UNL     1     -28.209  -3.324 -26.642  1.00  0.00    -0.207 F 
BRANCH  12  18
ATOM     18  N   UNL     1     -25.592  -5.377 -23.136  1.00  0.00    -0.250 N 
ATOM     19  C   UNL     1     -24.827  -4.678 -22.226  1.00  0.00     0.234 C 
ATOM     20  C   UNL     1     -25.035  -5.262 -20.863  1.00  0.00     0.111 C 
ATOM     21  C   UNL     1     -26.159  -6.487 -22.542  1.00  0.00     0.234 C 
ATOM     22  C   UNL     1     -25.648  -6.607 -21.138  1.00  0.00     0.111 C 
ATOM     23  O   UNL     1     -24.071  -3.732 -22.404  1.00  0.00    -0.274 OA
ATOM     24  O   UNL     1     -26.950  -7.301 -23.001  1.00  0.00    -0.274 OA
ENDBRANCH  12  18
ENDBRANCH   1  11
BRANCH   9  25
ATOM     25  N   UNL     1     -21.005  -7.289 -28.061  1.00  0.00    -0.340 N 
ATOM     26  H   UNL     1     -20.926  -8.063 -28.703  1.00  0.00     0.168 HD
BRANCH  25  27
ATOM     27  C   UNL     1     -19.845  -7.042 -27.297  1.00  0.00     0.040 A 
ATOM     28  C   UNL     1     -19.535  -5.711 -26.957  1.00  0.00     0.038 A 
ATOM     29  C   UNL     1     -18.954  -8.059 -26.933  1.00  0.00     0.028 A 
ATOM     30  C   UNL     1     -18.383  -5.435 -26.196  1.00  0.00     0.022 A 
ATOM     31  C   UNL     1     -17.799  -7.811 -26.173  1.00  0.00     0.030 A 
ATOM     32  C   UNL     1     -17.550  -6.482 -25.822  1.00  0.00     0.065 A 
ATOM     33  C   UNL     1     -17.767  -4.283 -25.656  1.00  0.00     0.143 A 
ATOM     34  N   UNL     1     -16.539  -5.899 -25.101  1.00  0.00    -0.278 N 
ATOM     35  N   UNL     1     -16.656  -4.565 -24.966  1.00  0.00    -0.183 NA
ATOM     36  H   UNL     1     -15.741  -6.356 -24.672  1.00  0.00     0.190 HD
ENDBRANCH  25  27
ENDBRANCH   9  25
TORSDOF 4
ENDMDL
MODEL 15
REMARK VINA RESULT:    -8.867      3.425      8.022
REMARK INTER + INTRA:         -12.030
REMARK INTER:                 -10.752
REMARK INTRA:                  -1.278
REMARK UNBOUND:                -1.090
REMARK SMILES O=C1CCC(=O)N1c1cc(F)cc(-c2nc(Nc3ccc4[nH]ncc4c3)c3ccccc3n2)c1
REMARK SMILES IDX 14 1 33 2 32 3 27 4 28 5 29 6 30 7 31 8 16 9 15 10 13 11
REMARK SMILES IDX 8 12 34 13 9 14 10 15 12 16 11 17 7 18 5 19 4 20 2 21 3 22
REMARK SMILES IDX 6 23 1 24 17 25 18 27 26 28 19 29 25 30 20 31 21 32 24 33
REMARK SMILES IDX 22 34 23 35
REMARK H PARENT 17 26 22 36
ROOT
ATOM      1  C   UNL     1     -22.523  -4.798 -26.071  1.00  0.00     0.162 A 
ATOM      2  N   UNL     1     -21.421  -4.595 -25.337  1.00  0.00    -0.228 NA
ATOM      3  C   UNL     1     -20.261  -5.041 -25.823  1.00  0.00     0.076 A 
ATOM      4  C   UNL     1     -20.156  -5.692 -27.057  1.00  0.00     0.043 A 
ATOM      5  C   UNL     1     -18.889  -6.159 -27.492  1.00  0.00     0.014 A 
ATOM      6  C   UNL     1     -17.749  -5.964 -26.715  1.00  0.00     0.001 A 
ATOM      7  C   UNL     1     -17.861  -5.311 -25.497  1.00  0.00     0.002 A 
ATOM      8  C   UNL     1     -19.110  -4.857 -25.066  1.00  0.00     0.029 A 
ATOM      9  C   UNL     1     -21.363  -5.837 -27.759  1.00  0.00     0.142 A 
ATOM     10  N   UNL     1     -22.538  -5.413 -27.261  1.00  0.00    -0.210 NA
ENDROOT
BRANCH   1  11
ATOM     11  C   UNL     1     -23.812  -4.311 -25.535  1.00  0.00     0.024 A 
ATOM     12  C   UNL     1     -26.301  -4.373 -25.520  1.00  0.00     0.055 A 
ATOM     13  C   UNL     1     -25.053  -4.806 -26.016  1.00  0.00     0.039 A 
ATOM     14  C   UNL     1     -26.276  -3.409 -24.506  1.00  0.00     0.066 A 
ATOM     15  C   UNL     1     -25.070  -2.909 -24.023  1.00  0.00     0.126 A 
ATOM     16  C   UNL     1     -23.854  -3.346 -24.522  1.00  0.00     0.051 A 
ATOM     17  F   UNL     1     -25.084  -1.987 -23.052  1.00  0.00    -0.207 F 
BRANCH  12  18
ATOM     18  N   UNL     1     -27.537  -4.910 -26.016  1.00  0.00    -0.250 N 
ATOM     19  C   UNL     1     -28.111  -6.091 -25.593  1.00  0.00     0.234 C 
ATOM     20  C   UNL     1     -29.477  -6.211 -26.194  1.00  0.00     0.111 C 
ATOM     21  C   UNL     1     -28.317  -4.311 -26.984  1.00  0.00     0.234 C 
ATOM     22  C   UNL     1     -29.464  -5.216 -27.321  1.00  0.00     0.111 C 
ATOM     23  O   UNL     1     -27.661  -6.959 -24.858  1.00  0.00    -0.274 OA
ATOM     24  O   UNL     1     -28.178  -3.230 -27.542  1.00  0.00    -0.274 OA
ENDBRANCH  12  18
ENDBRANCH   1  11
BRANCH   9  25
ATOM     25  N   UNL     1     -21.388  -6.482 -29.011  1.00  0.00    -0.340 N 
ATOM     26  H   UNL     1     -21.733  -7.429 -28.964  1.00  0.00     0.168 HD
BRANCH  25  27
ATOM     27  C   UNL     1     -21.501  -5.881 -30.282  1.00  0.00     0.040 A 
ATOM     28  C   UNL     1     -20.652  -6.325 -31.314  1.00  0.00     0.038 A 
ATOM     29  C   UNL     1     -22.370  -4.811 -30.535  1.00  0.00     0.028 A 
ATOM     30  C   UNL     1     -20.742  -5.743 -32.592  1.00  0.00     0.022 A 
ATOM     31  C   UNL     1     -22.480  -4.214 -31.801  1.00  0.00     0.030 A 
ATOM     32  C   UNL     1     -21.648  -4.712 -32.807  1.00  0.00     0.065 A 
ATOM     33  C   UNL     1     -20.107  -5.920 -33.843  1.00  0.00     0.143 A 
ATOM     34  N   UNL     1     -21.501  -4.369 -34.127  1.00  0.00    -0.278 N 
ATOM     35  N   UNL     1     -20.586  -5.101 -34.788  1.00  0.00    -0.183 NA
ATOM     36  H   UNL     1     -21.996  -3.646 -34.638  1.00  0.00     0.190 HD
ENDBRANCH  25  27
ENDBRANCH   9  25
TORSDOF 4
ENDMDL
MODEL 16
REMARK VINA RESULT:    -8.849      3.905      6.666
REMARK INTER + INTRA:         -12.008
REMARK INTER:                 -10.576
REMARK INTRA:                  -1.432
REMARK UNBOUND:                -1.090
REMARK SMILES O=C1CCC(=O)N1c1cc(F)cc(-c2nc(Nc3ccc4[nH]ncc4c3)c3ccccc3n2)c1
REMARK SMILES IDX 14 1 33 2 32 3 27 4 28 5 29 6 30 7 31 8 16 9 15 10 13 11
REMARK SMILES IDX 8 12 34 13 9 14 10 15 12 16 11 17 7 18 5 19 4 20 2 21 3 22
REMARK SMILES IDX 6 23 1 24 17 25 18 27 26 28 19 29 25 30 20 31 21 32 24 33
REMARK SMILES IDX 22 34 23 35
REMARK H PARENT 17 26 22 36
ROOT
ATOM      1  C   UNL     1     -20.126  -5.664 -29.572  1.00  0.00     0.162 A 
ATOM      2  N   UNL     1     -19.815  -4.669 -28.731  1.00  0.00    -0.228 NA
ATOM      3  C   UNL     1     -19.254  -4.995 -27.565  1.00  0.00     0.076 A 
ATOM      4  C   UNL     1     -18.974  -6.317 -27.201  1.00  0.00     0.043 A 
ATOM      5  C   UNL     1     -18.399  -6.582 -25.931  1.00  0.00     0.014 A 
ATOM      6  C   UNL     1     -18.097  -5.544 -25.052  1.00  0.00     0.001 A 
ATOM      7  C   UNL     1     -18.371  -4.237 -25.424  1.00  0.00     0.002 A 
ATOM      8  C   UNL     1     -18.942  -3.977 -26.671  1.00  0.00     0.029 A 
ATOM      9  C   UNL     1     -19.318  -7.284 -28.158  1.00  0.00     0.142 A 
ATOM     10  N   UNL     1     -19.908  -6.962 -29.324  1.00  0.00    -0.210 NA
ENDROOT
BRANCH   1  11
ATOM     11  C   UNL     1     -20.754  -5.310 -30.863  1.00  0.00     0.024 A 
ATOM     12  C   UNL     1     -20.789  -5.437 -33.350  1.00  0.00     0.055 A 
ATOM     13  C   UNL     1     -20.210  -5.746 -32.100  1.00  0.00     0.039 A 
ATOM     14  C   UNL     1     -21.954  -4.662 -33.330  1.00  0.00     0.066 A 
ATOM     15  C   UNL     1     -22.501  -4.222 -32.128  1.00  0.00     0.126 A 
ATOM     16  C   UNL     1     -21.918  -4.536 -30.911  1.00  0.00     0.051 A 
ATOM     17  F   UNL     1     -23.616  -3.481 -32.147  1.00  0.00    -0.207 F 
BRANCH  12  18
ATOM     18  N   UNL     1     -20.222  -5.912 -34.580  1.00  0.00    -0.250 N 
ATOM     19  C   UNL     1     -19.570  -5.124 -35.505  1.00  0.00     0.234 C 
ATOM     20  C   UNL     1     -18.955  -6.003 -36.548  1.00  0.00     0.111 C 
ATOM     21  C   UNL     1     -20.253  -7.227 -34.999  1.00  0.00     0.234 C 
ATOM     22  C   UNL     1     -19.664  -7.318 -36.375  1.00  0.00     0.111 C 
ATOM     23  O   UNL     1     -19.461  -3.906 -35.555  1.00  0.00    -0.274 OA
ATOM     24  O   UNL     1     -20.674  -8.222 -34.423  1.00  0.00    -0.274 OA
ENDBRANCH  12  18
ENDBRANCH   1  11
BRANCH   9  25
ATOM     25  N   UNL     1     -19.092  -8.651 -27.906  1.00  0.00    -0.340 N 
ATOM     26  H   UNL     1     -19.700  -9.030 -27.195  1.00  0.00     0.168 HD
BRANCH  25  27
ATOM     27  C   UNL     1     -18.561  -9.610 -28.793  1.00  0.00     0.040 A 
ATOM     28  C   UNL     1     -17.274  -9.395 -29.324  1.00  0.00     0.038 A 
ATOM     29  C   UNL     1     -19.294 -10.723 -29.225  1.00  0.00     0.028 A 
ATOM     30  C   UNL     1     -16.720 -10.335 -30.213  1.00  0.00     0.022 A 
ATOM     31  C   UNL     1     -18.763 -11.676 -30.110  1.00  0.00     0.030 A 
ATOM     32  C   UNL     1     -17.468 -11.446 -30.580  1.00  0.00     0.065 A 
ATOM     33  C   UNL     1     -15.500 -10.484 -30.914  1.00  0.00     0.143 A 
ATOM     34  N   UNL     1     -16.664 -12.158 -31.434  1.00  0.00    -0.278 N 
ATOM     35  N   UNL     1     -15.454 -11.607 -31.639  1.00  0.00    -0.183 NA
ATOM     36  H   UNL     1     -16.881 -13.028 -31.909  1.00  0.00     0.190 HD
ENDBRANCH  25  27
ENDBRANCH   9  25
TORSDOF 4
ENDMDL
MODEL 17
REMARK VINA RESULT:    -8.807      3.311      6.318
REMARK INTER + INTRA:         -11.957
REMARK INTER:                 -10.591
REMARK INTRA:                  -1.366
REMARK UNBOUND:                -1.090
REMARK SMILES O=C1CCC(=O)N1c1cc(F)cc(-c2nc(Nc3ccc4[nH]ncc4c3)c3ccccc3n2)c1
REMARK SMILES IDX 14 1 33 2 32 3 27 4 28 5 29 6 30 7 31 8 16 9 15 10 13 11
REMARK SMILES IDX 8 12 34 13 9 14 10 15 12 16 11 17 7 18 5 19 4 20 2 21 3 22
REMARK SMILES IDX 6 23 1 24 17 25 18 27 26 28 19 29 25 30 20 31 21 32 24 33
REMARK SMILES IDX 22 34 23 35
REMARK H PARENT 17 26 22 36
ROOT
ATOM      1  C   UNL     1     -23.919  -5.877 -28.433  1.00  0.00     0.162 A 
ATOM      2  N   UNL     1     -24.564  -6.908 -28.997  1.00  0.00    -0.228 NA
ATOM      3  C   UNL     1     -25.847  -7.086 -28.677  1.00  0.00     0.076 A 
ATOM      4  C   UNL     1     -26.534  -6.243 -27.797  1.00  0.00     0.043 A 
ATOM      5  C   UNL     1     -27.892  -6.515 -27.488  1.00  0.00     0.014 A 
ATOM      6  C   UNL     1     -28.552  -7.601 -28.061  1.00  0.00     0.001 A 
ATOM      7  C   UNL     1     -27.865  -8.427 -28.938  1.00  0.00     0.002 A 
ATOM      8  C   UNL     1     -26.527  -8.162 -29.237  1.00  0.00     0.029 A 
ATOM      9  C   UNL     1     -25.777  -5.181 -27.277  1.00  0.00     0.142 A 
ATOM     10  N   UNL     1     -24.477  -5.013 -27.575  1.00  0.00    -0.210 NA
ENDROOT
BRANCH   1  11
ATOM     11  C   UNL     1     -22.496  -5.678 -28.779  1.00  0.00     0.024 A 
ATOM     12  C   UNL     1     -20.112  -5.501 -28.081  1.00  0.00     0.055 A 
ATOM     13  C   UNL     1     -21.481  -5.676 -27.786  1.00  0.00     0.039 A 
ATOM     14  C   UNL     1     -19.776  -5.321 -29.428  1.00  0.00     0.066 A 
ATOM     15  C   UNL     1     -20.757  -5.315 -30.416  1.00  0.00     0.126 A 
ATOM     16  C   UNL     1     -22.096  -5.490 -30.107  1.00  0.00     0.051 A 
ATOM     17  F   UNL     1     -20.399  -5.140 -31.695  1.00  0.00    -0.207 F 
BRANCH  12  18
ATOM     18  N   UNL     1     -19.111  -5.525 -27.053  1.00  0.00    -0.250 N 
ATOM     19  C   UNL     1     -18.494  -4.410 -26.525  1.00  0.00     0.234 C 
ATOM     20  C   UNL     1     -17.664  -4.823 -25.350  1.00  0.00     0.111 C 
ATOM     21  C   UNL     1     -18.634  -6.673 -26.453  1.00  0.00     0.234 C 
ATOM     22  C   UNL     1     -17.524  -6.311 -25.513  1.00  0.00     0.111 C 
ATOM     23  O   UNL     1     -18.549  -3.242 -26.886  1.00  0.00    -0.274 OA
ATOM     24  O   UNL     1     -18.986  -7.837 -26.600  1.00  0.00    -0.274 OA
ENDBRANCH  12  18
ENDBRANCH   1  11
BRANCH   9  25
ATOM     25  N   UNL     1     -26.355  -4.267 -26.374  1.00  0.00    -0.340 N 
ATOM     26  H   UNL     1     -27.173  -3.805 -26.744  1.00  0.00     0.168 HD
BRANCH  25  27
ATOM     27  C   UNL     1     -26.285  -4.292 -24.966  1.00  0.00     0.040 A 
ATOM     28  C   UNL     1     -27.285  -4.985 -24.255  1.00  0.00     0.038 A 
ATOM     29  C   UNL     1     -25.307  -3.592 -24.248  1.00  0.00     0.028 A 
ATOM     30  C   UNL     1     -27.240  -5.026 -22.849  1.00  0.00     0.022 A 
ATOM     31  C   UNL     1     -25.240  -3.618 -22.846  1.00  0.00     0.030 A 
ATOM     32  C   UNL     1     -26.227  -4.351 -22.181  1.00  0.00     0.065 A 
ATOM     33  C   UNL     1     -28.013  -5.611 -21.819  1.00  0.00     0.143 A 
ATOM     34  N   UNL     1     -26.454  -4.584 -20.849  1.00  0.00    -0.278 N 
ATOM     35  N   UNL     1     -27.521  -5.364 -20.599  1.00  0.00    -0.183 NA
ATOM     36  H   UNL     1     -25.916  -4.241 -20.060  1.00  0.00     0.190 HD
ENDBRANCH  25  27
ENDBRANCH   9  25
TORSDOF 4
ENDMDL
MODEL 18
REMARK VINA RESULT:    -8.762      3.706      8.685
REMARK INTER + INTRA:         -11.900
REMARK INTER:                 -10.731
REMARK INTRA:                  -1.169
REMARK UNBOUND:                -1.090
REMARK SMILES O=C1CCC(=O)N1c1cc(F)cc(-c2nc(Nc3ccc4[nH]ncc4c3)c3ccccc3n2)c1
REMARK SMILES IDX 14 1 33 2 32 3 27 4 28 5 29 6 30 7 31 8 16 9 15 10 13 11
REMARK SMILES IDX 8 12 34 13 9 14 10 15 12 16 11 17 7 18 5 19 4 20 2 21 3 22
REMARK SMILES IDX 6 23 1 24 17 25 18 27 26 28 19 29 25 30 20 31 21 32 24 33
REMARK SMILES IDX 22 34 23 35
REMARK H PARENT 17 26 22 36
ROOT
ATOM      1  C   UNL     1     -23.232  -5.024 -26.669  1.00  0.00     0.162 A 
ATOM      2  N   UNL     1     -22.335  -4.640 -25.751  1.00  0.00    -0.228 NA
ATOM      3  C   UNL     1     -21.045  -4.863 -26.013  1.00  0.00     0.076 A 
ATOM      4  C   UNL     1     -20.604  -5.462 -27.198  1.00  0.00     0.043 A 
ATOM      5  C   UNL     1     -19.216  -5.687 -27.390  1.00  0.00     0.014 A 
ATOM      6  C   UNL     1     -18.289  -5.304 -26.422  1.00  0.00     0.001 A 
ATOM      7  C   UNL     1     -18.735  -4.704 -25.254  1.00  0.00     0.002 A 
ATOM      8  C   UNL     1     -20.101  -4.489 -25.063  1.00  0.00     0.029 A 
ATOM      9  C   UNL     1     -21.619  -5.809 -28.104  1.00  0.00     0.142 A 
ATOM     10  N   UNL     1     -22.921  -5.611 -27.833  1.00  0.00    -0.210 NA
ENDROOT
BRANCH   1  11
ATOM     11  C   UNL     1     -24.662  -4.786 -26.382  1.00  0.00     0.024 A 
ATOM     12  C   UNL     1     -26.670  -5.173 -24.961  1.00  0.00     0.055 A 
ATOM     13  C   UNL     1     -25.310  -5.387 -25.271  1.00  0.00     0.039 A 
ATOM     14  C   UNL     1     -27.383  -4.322 -25.813  1.00  0.00     0.066 A 
ATOM     15  C   UNL     1     -26.768  -3.725 -26.909  1.00  0.00     0.126 A 
ATOM     16  C   UNL     1     -25.431  -3.947 -27.197  1.00  0.00     0.051 A 
ATOM     17  F   UNL     1     -27.482  -2.917 -27.703  1.00  0.00    -0.207 F 
BRANCH  12  18
ATOM     18  N   UNL     1     -27.286  -5.782 -23.817  1.00  0.00    -0.250 N 
ATOM     19  C   UNL     1     -27.356  -5.215 -22.562  1.00  0.00     0.234 C 
ATOM     20  C   UNL     1     -28.239  -6.057 -21.694  1.00  0.00     0.111 C 
ATOM     21  C   UNL     1     -27.897  -7.020 -23.824  1.00  0.00     0.234 C 
ATOM     22  C   UNL     1     -28.323  -7.366 -22.429  1.00  0.00     0.111 C 
ATOM     23  O   UNL     1     -26.820  -4.203 -22.131  1.00  0.00    -0.274 OA
ATOM     24  O   UNL     1     -28.099  -7.788 -24.757  1.00  0.00    -0.274 OA
ENDBRANCH  12  18
ENDBRANCH   1  11
BRANCH   9  25
ATOM     25  N   UNL     1     -21.302  -6.426 -29.330  1.00  0.00    -0.340 N 
ATOM     26  H   UNL     1     -21.411  -7.428 -29.310  1.00  0.00     0.168 HD
BRANCH  25  27
ATOM     27  C   UNL     1     -21.367  -5.855 -30.618  1.00  0.00     0.040 A 
ATOM     28  C   UNL     1     -20.517  -6.360 -31.621  1.00  0.00     0.038 A 
ATOM     29  C   UNL     1     -22.187  -4.759 -30.915  1.00  0.00     0.028 A 
ATOM     30  C   UNL     1     -20.560  -5.809 -32.915  1.00  0.00     0.022 A 
ATOM     31  C   UNL     1     -22.249  -4.192 -32.198  1.00  0.00     0.030 A 
ATOM     32  C   UNL     1     -21.420  -4.749 -33.174  1.00  0.00     0.065 A 
ATOM     33  C   UNL     1     -19.910  -6.045 -34.149  1.00  0.00     0.143 A 
ATOM     34  N   UNL     1     -21.234  -4.448 -34.500  1.00  0.00    -0.278 N 
ATOM     35  N   UNL     1     -20.337  -5.234 -35.123  1.00  0.00    -0.183 NA
ATOM     36  H   UNL     1     -21.691  -3.721 -35.039  1.00  0.00     0.190 HD
ENDBRANCH  25  27
ENDBRANCH   9  25
TORSDOF 4
ENDMDL
MODEL 19
REMARK VINA RESULT:    -8.738      3.741      7.679
REMARK INTER + INTRA:         -11.871
REMARK INTER:                 -11.117
REMARK INTRA:                  -0.754
REMARK UNBOUND:                -1.090
REMARK SMILES O=C1CCC(=O)N1c1cc(F)cc(-c2nc(Nc3ccc4[nH]ncc4c3)c3ccccc3n2)c1
REMARK SMILES IDX 14 1 33 2 32 3 27 4 28 5 29 6 30 7 31 8 16 9 15 10 13 11
REMARK SMILES IDX 8 12 34 13 9 14 10 15 12 16 11 17 7 18 5 19 4 20 2 21 3 22
REMARK SMILES IDX 6 23 1 24 17 25 18 27 26 28 19 29 25 30 20 31 21 32 24 33
REMARK SMILES IDX 22 34 23 35
REMARK H PARENT 17 26 22 36
ROOT
ATOM      1  C   UNL     1     -21.905  -5.209 -26.540  1.00  0.00     0.162 A 
ATOM      2  N   UNL     1     -21.138  -6.023 -25.802  1.00  0.00    -0.228 NA
ATOM      3  C   UNL     1     -20.118  -6.633 -26.410  1.00  0.00     0.076 A 
ATOM      4  C   UNL     1     -19.819  -6.446 -27.764  1.00  0.00     0.043 A 
ATOM      5  C   UNL     1     -18.732  -7.151 -28.341  1.00  0.00     0.014 A 
ATOM      6  C   UNL     1     -17.951  -8.013 -27.574  1.00  0.00     0.001 A 
ATOM      7  C   UNL     1     -18.250  -8.188 -26.232  1.00  0.00     0.002 A 
ATOM      8  C   UNL     1     -19.324  -7.498 -25.666  1.00  0.00     0.029 A 
ATOM      9  C   UNL     1     -20.667  -5.557 -28.443  1.00  0.00     0.142 A 
ATOM     10  N   UNL     1     -21.713  -4.961 -27.842  1.00  0.00    -0.210 NA
ENDROOT
BRANCH   1  11
ATOM     11  C   UNL     1     -23.040  -4.535 -25.875  1.00  0.00     0.024 A 
ATOM     12  C   UNL     1     -25.493  -4.208 -25.602  1.00  0.00     0.055 A 
ATOM     13  C   UNL     1     -24.386  -4.822 -26.224  1.00  0.00     0.039 A 
ATOM     14  C   UNL     1     -25.213  -3.274 -24.598  1.00  0.00     0.066 A 
ATOM     15  C   UNL     1     -23.901  -2.975 -24.243  1.00  0.00     0.126 A 
ATOM     16  C   UNL     1     -22.826  -3.589 -24.865  1.00  0.00     0.051 A 
ATOM     17  F   UNL     1     -23.671  -2.076 -23.278  1.00  0.00    -0.207 F 
BRANCH  12  18
ATOM     18  N   UNL     1     -26.842  -4.538 -25.967  1.00  0.00    -0.250 N 
ATOM     19  C   UNL     1     -27.594  -3.863 -26.905  1.00  0.00     0.234 C 
ATOM     20  C   UNL     1     -28.863  -4.618 -27.149  1.00  0.00     0.111 C 
ATOM     21  C   UNL     1     -27.564  -5.584 -25.428  1.00  0.00     0.234 C 
ATOM     22  C   UNL     1     -28.961  -5.547 -25.970  1.00  0.00     0.111 C 
ATOM     23  O   UNL     1     -27.355  -2.816 -27.492  1.00  0.00    -0.274 OA
ATOM     24  O   UNL     1     -27.217  -6.444 -24.629  1.00  0.00    -0.274 OA
ENDBRANCH  12  18
ENDBRANCH   1  11
BRANCH   9  25
ATOM     25  N   UNL     1     -20.473  -5.290 -29.813  1.00  0.00    -0.340 N 
ATOM     26  H   UNL     1     -19.857  -5.950 -30.263  1.00  0.00     0.168 HD
BRANCH  25  27
ATOM     27  C   UNL     1     -21.353  -4.620 -30.689  1.00  0.00     0.040 A 
ATOM     28  C   UNL     1     -22.170  -3.598 -30.169  1.00  0.00     0.038 A 
ATOM     29  C   UNL     1     -21.498  -4.985 -32.033  1.00  0.00     0.028 A 
ATOM     30  C   UNL     1     -23.058  -2.913 -31.020  1.00  0.00     0.022 A 
ATOM     31  C   UNL     1     -22.376  -4.317 -32.903  1.00  0.00     0.030 A 
ATOM     32  C   UNL     1     -23.138  -3.282 -32.356  1.00  0.00     0.065 A 
ATOM     33  C   UNL     1     -23.988  -1.857 -30.889  1.00  0.00     0.143 A 
ATOM     34  N   UNL     1     -24.070  -2.440 -32.909  1.00  0.00    -0.278 N 
ATOM     35  N   UNL     1     -24.589  -1.549 -32.045  1.00  0.00    -0.183 NA
ATOM     36  H   UNL     1     -24.394  -2.421 -33.870  1.00  0.00     0.190 HD
ENDBRANCH  25  27
ENDBRANCH   9  25
TORSDOF 4
ENDMDL
MODEL 20
REMARK VINA RESULT:    -8.727      3.841      7.777
REMARK INTER + INTRA:         -11.858
REMARK INTER:                 -10.703
REMARK INTRA:                  -1.154
REMARK UNBOUND:                -1.090
REMARK SMILES O=C1CCC(=O)N1c1cc(F)cc(-c2nc(Nc3ccc4[nH]ncc4c3)c3ccccc3n2)c1
REMARK SMILES IDX 14 1 33 2 32 3 27 4 28 5 29 6 30 7 31 8 16 9 15 10 13 11
REMARK SMILES IDX 8 12 34 13 9 14 10 15 12 16 11 17 7 18 5 19 4 20 2 21 3 22
REMARK SMILES IDX 6 23 1 24 17 25 18 27 26 28 19 29 25 30 20 31 21 32 24 33
REMARK SMILES IDX 22 34 23 35
REMARK H PARENT 17 26 22 36
ROOT
ATOM      1  C   UNL     1     -21.053  -5.086 -26.603  1.00  0.00     0.162 A 
ATOM      2  N   UNL     1     -22.096  -5.514 -25.878  1.00  0.00    -0.228 NA
ATOM      3  C   UNL     1     -23.316  -5.132 -26.261  1.00  0.00     0.076 A 
ATOM      4  C   UNL     1     -23.542  -4.325 -27.382  1.00  0.00     0.043 A 
ATOM      5  C   UNL     1     -24.868  -3.943 -27.709  1.00  0.00     0.014 A 
ATOM      6  C   UNL     1     -25.947  -4.373 -26.939  1.00  0.00     0.001 A 
ATOM      7  C   UNL     1     -25.715  -5.179 -25.835  1.00  0.00     0.002 A 
ATOM      8  C   UNL     1     -24.408  -5.550 -25.510  1.00  0.00     0.029 A 
ATOM      9  C   UNL     1     -22.388  -3.948 -28.087  1.00  0.00     0.142 A 
ATOM     10  N   UNL     1     -21.154  -4.308 -27.689  1.00  0.00    -0.210 NA
ENDROOT
BRANCH   1  11
ATOM     11  C   UNL     1     -19.699  -5.499 -26.180  1.00  0.00     0.024 A 
ATOM     12  C   UNL     1     -18.010  -7.290 -25.805  1.00  0.00     0.055 A 
ATOM     13  C   UNL     1     -19.298  -6.861 -26.190  1.00  0.00     0.039 A 
ATOM     14  C   UNL     1     -17.111  -6.297 -25.397  1.00  0.00     0.066 A 
ATOM     15  C   UNL     1     -17.486  -4.957 -25.377  1.00  0.00     0.126 A 
ATOM     16  C   UNL     1     -18.755  -4.555 -25.760  1.00  0.00     0.051 A 
ATOM     17  F   UNL     1     -16.600  -4.034 -24.982  1.00  0.00    -0.207 F 
BRANCH  12  18
ATOM     18  N   UNL     1     -17.633  -8.674 -25.847  1.00  0.00    -0.250 N 
ATOM     19  C   UNL     1     -17.357  -9.383 -26.997  1.00  0.00     0.234 C 
ATOM     20  C   UNL     1     -16.814 -10.727 -26.624  1.00  0.00     0.111 C 
ATOM     21  C   UNL     1     -17.492  -9.481 -24.735  1.00  0.00     0.234 C 
ATOM     22  C   UNL     1     -17.200 -10.882 -25.179  1.00  0.00     0.111 C 
ATOM     23  O   UNL     1     -17.502  -9.059 -28.168  1.00  0.00    -0.274 OA
ATOM     24  O   UNL     1     -17.579  -9.197 -23.547  1.00  0.00    -0.274 OA
ENDBRANCH  12  18
ENDBRANCH   1  11
BRANCH   9  25
ATOM     25  N   UNL     1     -22.483  -3.130 -29.230  1.00  0.00    -0.340 N 
ATOM     26  H   UNL     1     -22.256  -2.164 -29.048  1.00  0.00     0.168 HD
BRANCH  25  27
ATOM     27  C   UNL     1     -22.340  -3.521 -30.577  1.00  0.00     0.040 A 
ATOM     28  C   UNL     1     -21.239  -4.325 -30.931  1.00  0.00     0.038 A 
ATOM     29  C   UNL     1     -23.205  -3.076 -31.586  1.00  0.00     0.028 A 
ATOM     30  C   UNL     1     -21.071  -4.729 -32.269  1.00  0.00     0.022 A 
ATOM     31  C   UNL     1     -23.060  -3.465 -32.927  1.00  0.00     0.030 A 
ATOM     32  C   UNL     1     -21.978  -4.297 -33.228  1.00  0.00     0.065 A 
ATOM     33  C   UNL     1     -20.148  -5.522 -32.988  1.00  0.00     0.143 A 
ATOM     34  N   UNL     1     -21.551  -4.854 -34.407  1.00  0.00    -0.278 N 
ATOM     35  N   UNL     1     -20.452  -5.621 -34.288  1.00  0.00    -0.183 NA
ATOM     36  H   UNL     1     -21.967  -4.751 -35.326  1.00  0.00     0.190 HD
ENDBRANCH  25  27
ENDBRANCH   9  25
TORSDOF 4
ENDMDL
