REMARK SMILES O=C1CCC(=O)N1c1cc(F)cc(-c2nc(Nc3ccc4[nH]ncc4c3)c3ccccc3n2)c1
REMARK SMILES IDX 14 1 33 2 32 3 27 4 28 5 29 6 30 7 31 8 16 9 15 10 13 11
REMARK SMILES IDX 8 12 34 13 9 14 10 15 12 16 11 17 7 18 5 19 4 20 2 21 3 22
REMARK SMILES IDX 6 23 1 24 17 25 18 27 26 28 19 29 25 30 20 31 21 32 24 33
REMARK SMILES IDX 22 34 23 35
REMARK H PARENT 17 26 22 36
ROOT
ATOM      1  C   UNL     1       0.428  -0.355  -0.509  1.00  0.00     0.162 A 
ATOM      2  N   UNL     1       0.682  -1.666  -0.398  1.00  0.00    -0.228 NA
ATOM      3  C   UNL     1      -0.338  -2.511  -0.561  1.00  0.00     0.076 A 
ATOM      4  C   UNL     1      -1.639  -2.084  -0.851  1.00  0.00     0.043 A 
ATOM      5  C   UNL     1      -2.674  -3.045  -0.985  1.00  0.00     0.014 A 
ATOM      6  C   UNL     1      -2.408  -4.406  -0.848  1.00  0.00     0.001 A 
ATOM      7  C   UNL     1      -1.115  -4.821  -0.568  1.00  0.00     0.002 A 
ATOM      8  C   UNL     1      -0.098  -3.874  -0.430  1.00  0.00     0.029 A 
ATOM      9  C   UNL     1      -1.797  -0.694  -0.968  1.00  0.00     0.142 A 
ATOM     10  N   UNL     1      -0.778   0.163  -0.778  1.00  0.00    -0.210 NA
ENDROOT
BRANCH   1  11
ATOM     11  C   UNL     1       1.552   0.587  -0.323  1.00  0.00     0.024 A 
ATOM     12  C   UNL     1       3.946   1.007   0.217  1.00  0.00     0.055 A 
ATOM     13  C   UNL     1       2.848   0.138   0.043  1.00  0.00     0.039 A 
ATOM     14  C   UNL     1       3.708   2.371   0.012  1.00  0.00     0.066 A 
ATOM     15  C   UNL     1       2.444   2.832  -0.344  1.00  0.00     0.126 A 
ATOM     16  C   UNL     1       1.378   1.963  -0.511  1.00  0.00     0.051 A 
ATOM     17  F   UNL     1       2.253   4.144  -0.532  1.00  0.00    -0.207 F 
BRANCH  12  18
ATOM     18  N   UNL     1       5.248   0.515   0.568  1.00  0.00    -0.250 N 
ATOM     19  C   UNL     1       5.518  -0.767   0.999  1.00  0.00     0.234 C 
ATOM     20  C   UNL     1       7.001  -0.954   1.075  1.00  0.00     0.111 C 
ATOM     21  C   UNL     1       6.407   1.263   0.516  1.00  0.00     0.234 C 
ATOM     22  C   UNL     1       7.542   0.449   1.060  1.00  0.00     0.111 C 
ATOM     23  O   UNL     1       4.747  -1.669   1.299  1.00  0.00    -0.274 OA
ATOM     24  O   UNL     1       6.582   2.408   0.118  1.00  0.00    -0.274 OA
ENDBRANCH  12  18
ENDBRANCH   1  11
BRANCH   9  25
ATOM     25  N   UNL     1      -3.061  -0.140  -1.251  1.00  0.00    -0.340 N 
ATOM     26  H   UNL     1      -3.552  -0.625  -1.987  1.00  0.00     0.168 HD
BRANCH  25  27
ATOM     27  C   UNL     1      -3.892   0.590  -0.376  1.00  0.00     0.040 A 
ATOM     28  C   UNL     1      -5.166   0.983  -0.830  1.00  0.00     0.038 A 
ATOM     29  C   UNL     1      -3.469   1.003   0.894  1.00  0.00     0.028 A 
ATOM     30  C   UNL     1      -6.016   1.713   0.022  1.00  0.00     0.022 A 
ATOM     31  C   UNL     1      -4.298   1.731   1.763  1.00  0.00     0.030 A 
ATOM     32  C   UNL     1      -5.569   2.065   1.289  1.00  0.00     0.065 A 
ATOM     33  C   UNL     1      -7.322   2.250  -0.053  1.00  0.00     0.143 A 
ATOM     34  N   UNL     1      -6.609   2.752   1.862  1.00  0.00    -0.278 N 
ATOM     35  N   UNL     1      -7.696   2.862   1.077  1.00  0.00    -0.183 NA
ATOM     36  H   UNL     1      -6.641   3.169   2.786  1.00  0.00     0.190 HD
ENDBRANCH  25  27
ENDBRANCH   9  25
TORSDOF 4
