REMARK SMILES C[C@@H]1CN(c2nc(-c3cc(F)cc(F)c3)cc(-c3ccc4nc(N)nc(N)c4c3)n2)C[C@H](C)O1
REMARK SMILES IDX 18 1 29 2 28 3 21 4 22 5 23 6 25 7 26 8 20 9 19 10 17 11
REMARK SMILES IDX 16 12 30 13 7 14 5 15 6 16 8 17 15 18 9 19 13 20 10 21 12 22
REMARK SMILES IDX 14 23 11 24 4 25 3 26 31 27 2 28 32 29 34 30 1 31 33 32
REMARK SMILES IDX 27 33 24 36
REMARK H PARENT 27 34 27 35 24 37 24 38
ROOT
ATOM      1  C   UNL     1       2.175  -0.345   0.006  1.00  0.00     0.001 A 
ATOM      2  C   UNL     1       3.293   0.330  -0.509  1.00  0.00     0.024 A 
ATOM      3  C   UNL     1       4.592  -0.245  -0.482  1.00  0.00     0.043 A 
ATOM      4  C   UNL     1       4.788  -1.509   0.073  1.00  0.00     0.078 A 
ATOM      5  N   UNL     1       5.992  -2.087   0.144  1.00  0.00    -0.213 NA
ATOM      6  C   UNL     1       7.029  -1.410  -0.350  1.00  0.00     0.222 A 
ATOM      7  N   UNL     1       6.965  -0.196  -0.895  1.00  0.00    -0.196 NA
ATOM      8  C   UNL     1       5.751   0.362  -0.974  1.00  0.00     0.136 A 
ATOM      9  C   UNL     1       3.683  -2.183   0.570  1.00  0.00     0.030 A 
ATOM     10  C   UNL     1       2.398  -1.623   0.536  1.00  0.00     0.012 A 
ENDROOT
BRANCH   1  11
ATOM     11  C   UNL     1       0.822   0.244  -0.010  1.00  0.00     0.076 A 
ATOM     12  C   UNL     1       0.589   1.590   0.179  1.00  0.00     0.058 A 
ATOM     13  N   UNL     1      -0.186  -0.628  -0.211  1.00  0.00    -0.213 NA
ATOM     14  C   UNL     1      -0.726   2.003   0.140  1.00  0.00     0.077 A 
ATOM     15  C   UNL     1      -1.444  -0.169  -0.236  1.00  0.00     0.226 A 
ATOM     16  N   UNL     1      -1.733   1.129  -0.063  1.00  0.00    -0.213 NA
BRANCH  14  17
ATOM     17  C   UNL     1      -1.139   3.409   0.325  1.00  0.00     0.006 A 
ATOM     18  C   UNL     1      -0.326   4.489  -0.065  1.00  0.00     0.049 A 
ATOM     19  C   UNL     1      -2.388   3.721   0.894  1.00  0.00     0.049 A 
ATOM     20  C   UNL     1      -0.747   5.806   0.120  1.00  0.00     0.126 A 
ATOM     21  C   UNL     1      -2.790   5.044   1.071  1.00  0.00     0.126 A 
ATOM     22  C   UNL     1      -1.975   6.097   0.690  1.00  0.00     0.078 A 
ATOM     23  F   UNL     1       0.054   6.808  -0.264  1.00  0.00    -0.207 F 
ATOM     24  F   UNL     1      -3.984   5.301   1.620  1.00  0.00    -0.207 F 
ENDBRANCH  14  17
BRANCH  15  25
ATOM     25  N   UNL     1      -2.486  -1.063  -0.486  1.00  0.00    -0.336 N 
ATOM     26  C   UNL     1      -2.168  -2.462  -0.157  1.00  0.00     0.151 C 
ATOM     27  C   UNL     1      -3.796  -0.614   0.010  1.00  0.00     0.151 C 
ATOM     28  C   UNL     1      -3.335  -3.382  -0.574  1.00  0.00     0.135 C 
ATOM     29  C   UNL     1      -4.893  -1.613  -0.414  1.00  0.00     0.135 C 
ATOM     30  O   UNL     1      -4.572  -2.948   0.021  1.00  0.00    -0.372 OA
ATOM     31  C   UNL     1      -3.086  -4.815  -0.126  1.00  0.00     0.040 C 
ATOM     32  C   UNL     1      -6.236  -1.241   0.199  1.00  0.00     0.040 C 
ENDBRANCH  15  25
ENDBRANCH   1  11
BRANCH   8  33
ATOM     33  N   UNL     1       5.719   1.627  -1.579  1.00  0.00    -0.383 N 
ATOM     34  H   UNL     1       6.675   1.830  -1.869  1.00  0.00     0.158 HD
ATOM     35  H   UNL     1       5.095   1.625  -2.379  1.00  0.00     0.158 HD
ENDBRANCH   8  33
BRANCH   6  36
ATOM     36  N   UNL     1       8.273  -1.998  -0.253  1.00  0.00    -0.368 N 
ATOM     37  H   UNL     1       8.989  -1.285  -0.238  1.00  0.00     0.159 HD
ATOM     38  H   UNL     1       8.273  -2.672   0.500  1.00  0.00     0.159 HD
ENDBRANCH   6  36
TORSDOF 5
