MODEL 1
REMARK VINA RESULT:    -9.633      0.000      0.000
REMARK INTER + INTRA:         -12.809
REMARK INTER:                 -11.885
REMARK INTRA:                  -0.923
REMARK UNBOUND:                -0.923
REMARK SMILES C[C@@H]1CN(c2nc(-c3cc(F)cc(F)c3)cc(-c3ccc4nc(N)nc(N)c4c3)n2)C[C@H](C)O1
REMARK SMILES IDX 18 1 29 2 28 3 21 4 22 5 23 6 25 7 26 8 20 9 19 10 17 11
REMARK SMILES IDX 16 12 30 13 7 14 5 15 6 16 8 17 15 18 9 19 13 20 10 21 12 22
REMARK SMILES IDX 14 23 11 24 4 25 3 26 31 27 2 28 32 29 34 30 1 31 33 32
REMARK SMILES IDX 27 33 24 36
REMARK H PARENT 27 34 27 35 24 37 24 38
ROOT
ATOM      1  C   UNL     1     -20.276  -5.306 -26.599  1.00  0.00     0.001 A 
ATOM      2  C   UNL     1     -20.138  -6.659 -26.252  1.00  0.00     0.024 A 
ATOM      3  C   UNL     1     -18.933  -7.170 -25.700  1.00  0.00     0.043 A 
ATOM      4  C   UNL     1     -17.841  -6.327 -25.496  1.00  0.00     0.078 A 
ATOM      5  N   UNL     1     -16.677  -6.761 -25.001  1.00  0.00    -0.213 NA
ATOM      6  C   UNL     1     -16.584  -8.054 -24.691  1.00  0.00     0.222 A 
ATOM      7  N   UNL     1     -17.554  -8.954 -24.849  1.00  0.00    -0.196 NA
ATOM      8  C   UNL     1     -18.718  -8.501 -25.330  1.00  0.00     0.136 A 
ATOM      9  C   UNL     1     -17.980  -4.987 -25.826  1.00  0.00     0.030 A 
ATOM     10  C   UNL     1     -19.171  -4.477 -26.361  1.00  0.00     0.012 A 
ENDROOT
BRANCH   1  11
ATOM     11  C   UNL     1     -21.520  -4.763 -27.179  1.00  0.00     0.076 A 
ATOM     12  C   UNL     1     -21.618  -4.355 -28.492  1.00  0.00     0.058 A 
ATOM     13  N   UNL     1     -22.564  -4.679 -26.331  1.00  0.00    -0.213 NA
ATOM     14  C   UNL     1     -22.842  -3.868 -28.900  1.00  0.00     0.077 A 
ATOM     15  C   UNL     1     -23.728  -4.194 -26.783  1.00  0.00     0.226 A 
ATOM     16  N   UNL     1     -23.886  -3.785 -28.051  1.00  0.00    -0.213 NA
BRANCH  14  17
ATOM     17  C   UNL     1     -23.107  -3.391 -30.273  1.00  0.00     0.006 A 
ATOM     18  C   UNL     1     -23.847  -2.224 -30.534  1.00  0.00     0.049 A 
ATOM     19  C   UNL     1     -22.606  -4.093 -31.385  1.00  0.00     0.049 A 
ATOM     20  C   UNL     1     -24.077  -1.798 -31.842  1.00  0.00     0.126 A 
ATOM     21  C   UNL     1     -22.847  -3.652 -32.685  1.00  0.00     0.126 A 
ATOM     22  C   UNL     1     -23.585  -2.505 -32.927  1.00  0.00     0.078 A 
ATOM     23  F   UNL     1     -24.786  -0.682 -32.051  1.00  0.00    -0.207 F 
ATOM     24  F   UNL     1     -22.358  -4.349 -33.718  1.00  0.00    -0.207 F 
ENDBRANCH  14  17
BRANCH  15  25
ATOM     25  N   UNL     1     -24.823  -4.145 -25.919  1.00  0.00    -0.336 N 
ATOM     26  C   UNL     1     -26.019  -4.834 -26.427  1.00  0.00     0.151 C 
ATOM     27  C   UNL     1     -24.499  -4.460 -24.519  1.00  0.00     0.151 C 
ATOM     28  C   UNL     1     -27.202  -4.626 -25.457  1.00  0.00     0.135 C 
ATOM     29  C   UNL     1     -25.746  -4.268 -23.631  1.00  0.00     0.135 C 
ATOM     30  O   UNL     1     -26.855  -5.044 -24.124  1.00  0.00    -0.372 OA
ATOM     31  C   UNL     1     -28.414  -5.437 -25.893  1.00  0.00     0.040 C 
ATOM     32  C   UNL     1     -25.472  -4.715 -22.202  1.00  0.00     0.040 C 
ENDBRANCH  15  25
ENDBRANCH   1  11
BRANCH   8  33
ATOM     33  N   UNL     1     -19.724  -9.471 -25.455  1.00  0.00    -0.383 N 
ATOM     34  H   UNL     1     -19.407 -10.120 -26.174  1.00  0.00     0.158 HD
ATOM     35  H   UNL     1     -19.867  -9.954 -24.575  1.00  0.00     0.158 HD
ENDBRANCH   8  33
BRANCH   6  36
ATOM     36  N   UNL     1     -15.374  -8.503 -24.204  1.00  0.00    -0.368 N 
ATOM     37  H   UNL     1     -15.520  -9.312 -23.616  1.00  0.00     0.159 HD
ATOM     38  H   UNL     1     -14.714  -8.594 -24.964  1.00  0.00     0.159 HD
ENDBRANCH   6  36
TORSDOF 5
ENDMDL
MODEL 2
REMARK VINA RESULT:    -9.360      0.626      1.552
REMARK INTER + INTRA:         -12.473
REMARK INTER:                 -11.566
REMARK INTRA:                  -0.907
REMARK UNBOUND:                -0.923
REMARK SMILES C[C@@H]1CN(c2nc(-c3cc(F)cc(F)c3)cc(-c3ccc4nc(N)nc(N)c4c3)n2)C[C@H](C)O1
REMARK SMILES IDX 18 1 29 2 28 3 21 4 22 5 23 6 25 7 26 8 20 9 19 10 17 11
REMARK SMILES IDX 16 12 30 13 7 14 5 15 6 16 8 17 15 18 9 19 13 20 10 21 12 22
REMARK SMILES IDX 14 23 11 24 4 25 3 26 31 27 2 28 32 29 34 30 1 31 33 32
REMARK SMILES IDX 27 33 24 36
REMARK H PARENT 27 34 27 35 24 37 24 38
ROOT
ATOM      1  C   UNL     1     -20.357  -5.697 -26.586  1.00  0.00     0.001 A 
ATOM      2  C   UNL     1     -19.990  -7.052 -26.561  1.00  0.00     0.024 A 
ATOM      3  C   UNL     1     -18.777  -7.488 -25.965  1.00  0.00     0.043 A 
ATOM      4  C   UNL     1     -17.906  -6.563 -25.389  1.00  0.00     0.078 A 
ATOM      5  N   UNL     1     -16.742  -6.916 -24.835  1.00  0.00    -0.213 NA
ATOM      6  C   UNL     1     -16.428  -8.212 -24.838  1.00  0.00     0.222 A 
ATOM      7  N   UNL     1     -17.174  -9.183 -25.363  1.00  0.00    -0.196 NA
ATOM      8  C   UNL     1     -18.344  -8.815 -25.900  1.00  0.00     0.136 A 
ATOM      9  C   UNL     1     -18.273  -5.226 -25.401  1.00  0.00     0.030 A 
ATOM     10  C   UNL     1     -19.474  -4.793 -25.980  1.00  0.00     0.012 A 
ENDROOT
BRANCH   1  11
ATOM     11  C   UNL     1     -21.611  -5.230 -27.208  1.00  0.00     0.076 A 
ATOM     12  C   UNL     1     -21.659  -4.668 -28.467  1.00  0.00     0.058 A 
ATOM     13  N   UNL     1     -22.720  -5.378 -26.456  1.00  0.00    -0.213 NA
ATOM     14  C   UNL     1     -22.899  -4.276 -28.924  1.00  0.00     0.077 A 
ATOM     15  C   UNL     1     -23.897  -4.975 -26.952  1.00  0.00     0.226 A 
ATOM     16  N   UNL     1     -24.007  -4.426 -28.170  1.00  0.00    -0.213 NA
BRANCH  14  17
ATOM     17  C   UNL     1     -23.116  -3.658 -30.248  1.00  0.00     0.006 A 
ATOM     18  C   UNL     1     -23.781  -2.428 -30.404  1.00  0.00     0.049 A 
ATOM     19  C   UNL     1     -22.643  -4.283 -31.417  1.00  0.00     0.049 A 
ATOM     20  C   UNL     1     -23.966  -1.869 -31.669  1.00  0.00     0.126 A 
ATOM     21  C   UNL     1     -22.839  -3.708 -32.672  1.00  0.00     0.126 A 
ATOM     22  C   UNL     1     -23.504  -2.501 -32.811  1.00  0.00     0.078 A 
ATOM     23  F   UNL     1     -24.604  -0.697 -31.778  1.00  0.00    -0.207 F 
ATOM     24  F   UNL     1     -22.379  -4.335 -33.762  1.00  0.00    -0.207 F 
ENDBRANCH  14  17
BRANCH  15  25
ATOM     25  N   UNL     1     -25.052  -5.165 -26.192  1.00  0.00    -0.336 N 
ATOM     26  C   UNL     1     -24.987  -4.579 -24.844  1.00  0.00     0.151 C 
ATOM     27  C   UNL     1     -26.301  -4.873 -26.912  1.00  0.00     0.151 C 
ATOM     28  C   UNL     1     -26.258  -4.940 -24.047  1.00  0.00     0.135 C 
ATOM     29  C   UNL     1     -27.516  -5.222 -26.027  1.00  0.00     0.135 C 
ATOM     30  O   UNL     1     -27.444  -4.542 -24.760  1.00  0.00    -0.372 OA
ATOM     31  C   UNL     1     -26.274  -4.237 -22.697  1.00  0.00     0.040 C 
ATOM     32  C   UNL     1     -28.817  -4.805 -26.699  1.00  0.00     0.040 C 
ENDBRANCH  15  25
ENDBRANCH   1  11
BRANCH   8  33
ATOM     33  N   UNL     1     -19.114  -9.867 -26.418  1.00  0.00    -0.383 N 
ATOM     34  H   UNL     1     -18.465 -10.488 -26.898  1.00  0.00     0.158 HD
ATOM     35  H   UNL     1     -19.595 -10.358 -25.672  1.00  0.00     0.158 HD
ENDBRANCH   8  33
BRANCH   6  36
ATOM     36  N   UNL     1     -15.215  -8.571 -24.287  1.00  0.00    -0.368 N 
ATOM     37  H   UNL     1     -15.355  -9.283 -23.584  1.00  0.00     0.159 HD
ATOM     38  H   UNL     1     -14.552  -8.769 -25.024  1.00  0.00     0.159 HD
ENDBRANCH   6  36
TORSDOF 5
ENDMDL
MODEL 3
REMARK VINA RESULT:    -9.271      4.266      7.516
REMARK INTER + INTRA:         -12.363
REMARK INTER:                 -11.390
REMARK INTRA:                  -0.972
REMARK UNBOUND:                -0.923
REMARK SMILES C[C@@H]1CN(c2nc(-c3cc(F)cc(F)c3)cc(-c3ccc4nc(N)nc(N)c4c3)n2)C[C@H](C)O1
REMARK SMILES IDX 18 1 29 2 28 3 21 4 22 5 23 6 25 7 26 8 20 9 19 10 17 11
REMARK SMILES IDX 16 12 30 13 7 14 5 15 6 16 8 17 15 18 9 19 13 20 10 21 12 22
REMARK SMILES IDX 14 23 11 24 4 25 3 26 31 27 2 28 32 29 34 30 1 31 33 32
REMARK SMILES IDX 27 33 24 36
REMARK H PARENT 27 34 27 35 24 37 24 38
ROOT
ATOM      1  C   UNL     1     -21.466  -5.238 -30.745  1.00  0.00     0.001 A 
ATOM      2  C   UNL     1     -20.610  -6.214 -31.278  1.00  0.00     0.024 A 
ATOM      3  C   UNL     1     -20.363  -6.311 -32.674  1.00  0.00     0.043 A 
ATOM      4  C   UNL     1     -20.982  -5.429 -33.558  1.00  0.00     0.078 A 
ATOM      5  N   UNL     1     -20.803  -5.489 -34.882  1.00  0.00    -0.213 NA
ATOM      6  C   UNL     1     -19.987  -6.435 -35.349  1.00  0.00     0.222 A 
ATOM      7  N   UNL     1     -19.349  -7.337 -34.604  1.00  0.00    -0.196 NA
ATOM      8  C   UNL     1     -19.526  -7.252 -33.280  1.00  0.00     0.136 A 
ATOM      9  C   UNL     1     -21.818  -4.455 -33.033  1.00  0.00     0.030 A 
ATOM     10  C   UNL     1     -22.056  -4.350 -31.655  1.00  0.00     0.012 A 
ENDROOT
BRANCH   1  11
ATOM     11  C   UNL     1     -21.736  -5.131 -29.298  1.00  0.00     0.076 A 
ATOM     12  C   UNL     1     -22.943  -4.697 -28.791  1.00  0.00     0.058 A 
ATOM     13  N   UNL     1     -20.713  -5.478 -28.492  1.00  0.00    -0.213 NA
ATOM     14  C   UNL     1     -23.056  -4.645 -27.418  1.00  0.00     0.077 A 
ATOM     15  C   UNL     1     -20.881  -5.405 -27.165  1.00  0.00     0.226 A 
ATOM     16  N   UNL     1     -22.032  -4.994 -26.613  1.00  0.00    -0.213 NA
BRANCH  14  17
ATOM     17  C   UNL     1     -24.282  -4.202 -26.723  1.00  0.00     0.006 A 
ATOM     18  C   UNL     1     -24.250  -3.613 -25.445  1.00  0.00     0.049 A 
ATOM     19  C   UNL     1     -25.543  -4.342 -27.332  1.00  0.00     0.049 A 
ATOM     20  C   UNL     1     -25.425  -3.201 -24.817  1.00  0.00     0.126 A 
ATOM     21  C   UNL     1     -26.706  -3.924 -26.687  1.00  0.00     0.126 A 
ATOM     22  C   UNL     1     -26.660  -3.354 -25.426  1.00  0.00     0.078 A 
ATOM     23  F   UNL     1     -25.356  -2.645 -23.601  1.00  0.00    -0.207 F 
ATOM     24  F   UNL     1     -27.888  -4.078 -27.297  1.00  0.00    -0.207 F 
ENDBRANCH  14  17
BRANCH  15  25
ATOM     25  N   UNL     1     -19.837  -5.803 -26.328  1.00  0.00    -0.336 N 
ATOM     26  C   UNL     1     -19.505  -7.234 -26.423  1.00  0.00     0.151 C 
ATOM     27  C   UNL     1     -18.667  -4.913 -26.360  1.00  0.00     0.151 C 
ATOM     28  C   UNL     1     -18.425  -7.596 -25.382  1.00  0.00     0.135 C 
ATOM     29  C   UNL     1     -17.623  -5.374 -25.322  1.00  0.00     0.135 C 
ATOM     30  O   UNL     1     -17.265  -6.755 -25.527  1.00  0.00    -0.372 OA
ATOM     31  C   UNL     1     -17.970  -9.039 -25.548  1.00  0.00     0.040 C 
ATOM     32  C   UNL     1     -16.347  -4.550 -25.428  1.00  0.00     0.040 C 
ENDBRANCH  15  25
ENDBRANCH   1  11
BRANCH   8  33
ATOM     33  N   UNL     1     -18.817  -8.199 -32.526  1.00  0.00    -0.383 N 
ATOM     34  H   UNL     1     -19.453  -8.521 -31.798  1.00  0.00     0.158 HD
ATOM     35  H   UNL     1     -18.522  -8.973 -33.111  1.00  0.00     0.158 HD
ENDBRANCH   8  33
BRANCH   6  36
ATOM     36  N   UNL     1     -19.823  -6.511 -36.717  1.00  0.00    -0.368 N 
ATOM     37  H   UNL     1     -20.348  -7.294 -37.082  1.00  0.00     0.159 HD
ATOM     38  H   UNL     1     -19.993  -5.605 -37.131  1.00  0.00     0.159 HD
ENDBRANCH   6  36
TORSDOF 5
ENDMDL
MODEL 4
REMARK VINA RESULT:    -9.264      4.268      7.548
REMARK INTER + INTRA:         -12.353
REMARK INTER:                 -11.388
REMARK INTRA:                  -0.965
REMARK UNBOUND:                -0.923
REMARK SMILES C[C@@H]1CN(c2nc(-c3cc(F)cc(F)c3)cc(-c3ccc4nc(N)nc(N)c4c3)n2)C[C@H](C)O1
REMARK SMILES IDX 18 1 29 2 28 3 21 4 22 5 23 6 25 7 26 8 20 9 19 10 17 11
REMARK SMILES IDX 16 12 30 13 7 14 5 15 6 16 8 17 15 18 9 19 13 20 10 21 12 22
REMARK SMILES IDX 14 23 11 24 4 25 3 26 31 27 2 28 32 29 34 30 1 31 33 32
REMARK SMILES IDX 27 33 24 36
REMARK H PARENT 27 34 27 35 24 37 24 38
ROOT
ATOM      1  C   UNL     1     -21.466  -5.231 -30.754  1.00  0.00     0.001 A 
ATOM      2  C   UNL     1     -20.631  -6.224 -31.289  1.00  0.00     0.024 A 
ATOM      3  C   UNL     1     -20.382  -6.321 -32.685  1.00  0.00     0.043 A 
ATOM      4  C   UNL     1     -20.979  -5.421 -33.567  1.00  0.00     0.078 A 
ATOM      5  N   UNL     1     -20.796  -5.480 -34.891  1.00  0.00    -0.213 NA
ATOM      6  C   UNL     1     -20.001  -6.443 -35.359  1.00  0.00     0.222 A 
ATOM      7  N   UNL     1     -19.386  -7.361 -34.616  1.00  0.00    -0.196 NA
ATOM      8  C   UNL     1     -19.565  -7.278 -33.292  1.00  0.00     0.136 A 
ATOM      9  C   UNL     1     -21.793  -4.431 -33.040  1.00  0.00     0.030 A 
ATOM     10  C   UNL     1     -22.033  -4.326 -31.662  1.00  0.00     0.012 A 
ENDROOT
BRANCH   1  11
ATOM     11  C   UNL     1     -21.738  -5.124 -29.308  1.00  0.00     0.076 A 
ATOM     12  C   UNL     1     -22.942  -4.678 -28.803  1.00  0.00     0.058 A 
ATOM     13  N   UNL     1     -20.720  -5.482 -28.500  1.00  0.00    -0.213 NA
ATOM     14  C   UNL     1     -23.058  -4.628 -27.430  1.00  0.00     0.077 A 
ATOM     15  C   UNL     1     -20.890  -5.410 -27.173  1.00  0.00     0.226 A 
ATOM     16  N   UNL     1     -22.038  -4.988 -26.623  1.00  0.00    -0.213 NA
BRANCH  14  17
ATOM     17  C   UNL     1     -24.280  -4.174 -26.736  1.00  0.00     0.006 A 
ATOM     18  C   UNL     1     -25.558  -4.283 -27.315  1.00  0.00     0.049 A 
ATOM     19  C   UNL     1     -24.208  -3.621 -25.444  1.00  0.00     0.049 A 
ATOM     20  C   UNL     1     -26.693  -3.848 -26.632  1.00  0.00     0.126 A 
ATOM     21  C   UNL     1     -25.355  -3.191 -24.778  1.00  0.00     0.126 A 
ATOM     22  C   UNL     1     -26.605  -3.297 -25.365  1.00  0.00     0.078 A 
ATOM     23  F   UNL     1     -27.893  -3.968 -27.215  1.00  0.00    -0.207 F 
ATOM     24  F   UNL     1     -25.246  -2.666 -23.551  1.00  0.00    -0.207 F 
ENDBRANCH  14  17
BRANCH  15  25
ATOM     25  N   UNL     1     -19.852  -5.819 -26.335  1.00  0.00    -0.336 N 
ATOM     26  C   UNL     1     -19.543  -7.256 -26.421  1.00  0.00     0.151 C 
ATOM     27  C   UNL     1     -18.668  -4.948 -26.373  1.00  0.00     0.151 C 
ATOM     28  C   UNL     1     -18.468  -7.629 -25.379  1.00  0.00     0.135 C 
ATOM     29  C   UNL     1     -17.630  -5.420 -25.334  1.00  0.00     0.135 C 
ATOM     30  O   UNL     1     -17.295  -6.807 -25.531  1.00  0.00    -0.372 OA
ATOM     31  C   UNL     1     -18.037  -9.080 -25.537  1.00  0.00     0.040 C 
ATOM     32  C   UNL     1     -16.341  -4.617 -25.446  1.00  0.00     0.040 C 
ENDBRANCH  15  25
ENDBRANCH   1  11
BRANCH   8  33
ATOM     33  N   UNL     1     -18.879  -8.244 -32.540  1.00  0.00    -0.383 N 
ATOM     34  H   UNL     1     -18.294  -7.731 -31.881  1.00  0.00     0.158 HD
ATOM     35  H   UNL     1     -19.533  -8.843 -32.047  1.00  0.00     0.158 HD
ENDBRANCH   8  33
BRANCH   6  36
ATOM     36  N   UNL     1     -19.835  -6.517 -36.726  1.00  0.00    -0.368 N 
ATOM     37  H   UNL     1     -20.708  -6.306 -37.190  1.00  0.00     0.159 HD
ATOM     38  H   UNL     1     -19.023  -5.981 -37.000  1.00  0.00     0.159 HD
ENDBRANCH   6  36
TORSDOF 5
ENDMDL
MODEL 5
REMARK VINA RESULT:    -9.226      0.731      1.644
REMARK INTER + INTRA:         -12.307
REMARK INTER:                 -11.390
REMARK INTRA:                  -0.917
REMARK UNBOUND:                -0.923
REMARK SMILES C[C@@H]1CN(c2nc(-c3cc(F)cc(F)c3)cc(-c3ccc4nc(N)nc(N)c4c3)n2)C[C@H](C)O1
REMARK SMILES IDX 18 1 29 2 28 3 21 4 22 5 23 6 25 7 26 8 20 9 19 10 17 11
REMARK SMILES IDX 16 12 30 13 7 14 5 15 6 16 8 17 15 18 9 19 13 20 10 21 12 22
REMARK SMILES IDX 14 23 11 24 4 25 3 26 31 27 2 28 32 29 34 30 1 31 33 32
REMARK SMILES IDX 27 33 24 36
REMARK H PARENT 27 34 27 35 24 37 24 38
ROOT
ATOM      1  C   UNL     1     -20.914  -6.267 -26.630  1.00  0.00     0.001 A 
ATOM      2  C   UNL     1     -19.670  -5.684 -26.342  1.00  0.00     0.024 A 
ATOM      3  C   UNL     1     -18.605  -6.436 -25.777  1.00  0.00     0.043 A 
ATOM      4  C   UNL     1     -18.779  -7.788 -25.483  1.00  0.00     0.078 A 
ATOM      5  N   UNL     1     -17.818  -8.536 -24.931  1.00  0.00    -0.213 NA
ATOM      6  C   UNL     1     -16.653  -7.943 -24.667  1.00  0.00     0.222 A 
ATOM      7  N   UNL     1     -16.374  -6.661 -24.895  1.00  0.00    -0.196 NA
ATOM      8  C   UNL     1     -17.340  -5.930 -25.464  1.00  0.00     0.136 A 
ATOM      9  C   UNL     1     -20.003  -8.368 -25.779  1.00  0.00     0.030 A 
ATOM     10  C   UNL     1     -21.053  -7.632 -26.346  1.00  0.00     0.012 A 
ENDROOT
BRANCH   1  11
ATOM     11  C   UNL     1     -22.031  -5.496 -27.210  1.00  0.00     0.076 A 
ATOM     12  C   UNL     1     -21.997  -4.976 -28.487  1.00  0.00     0.058 A 
ATOM     13  N   UNL     1     -23.094  -5.318 -26.401  1.00  0.00    -0.213 NA
ATOM     14  C   UNL     1     -23.110  -4.275 -28.901  1.00  0.00     0.077 A 
ATOM     15  C   UNL     1     -24.146  -4.625 -26.856  1.00  0.00     0.226 A 
ATOM     16  N   UNL     1     -24.174  -4.100 -28.090  1.00  0.00    -0.213 NA
BRANCH  14  17
ATOM     17  C   UNL     1     -23.228  -3.658 -30.237  1.00  0.00     0.006 A 
ATOM     18  C   UNL     1     -23.823  -2.398 -30.434  1.00  0.00     0.049 A 
ATOM     19  C   UNL     1     -22.727  -4.314 -31.377  1.00  0.00     0.049 A 
ATOM     20  C   UNL     1     -23.915  -1.840 -31.709  1.00  0.00     0.126 A 
ATOM     21  C   UNL     1     -22.830  -3.740 -32.644  1.00  0.00     0.126 A 
ATOM     22  C   UNL     1     -23.426  -2.502 -32.823  1.00  0.00     0.078 A 
ATOM     23  F   UNL     1     -24.488  -0.639 -31.857  1.00  0.00    -0.207 F 
ATOM     24  F   UNL     1     -22.345  -4.397 -33.705  1.00  0.00    -0.207 F 
ENDBRANCH  14  17
BRANCH  15  25
ATOM     25  N   UNL     1     -25.264  -4.476 -26.036  1.00  0.00    -0.336 N 
ATOM     26  C   UNL     1     -26.456  -5.199 -26.508  1.00  0.00     0.151 C 
ATOM     27  C   UNL     1     -24.986  -4.651 -24.602  1.00  0.00     0.151 C 
ATOM     28  C   UNL     1     -27.663  -4.880 -25.601  1.00  0.00     0.135 C 
ATOM     29  C   UNL     1     -26.256  -4.355 -23.777  1.00  0.00     0.135 C 
ATOM     30  O   UNL     1     -27.362  -5.164 -24.222  1.00  0.00    -0.372 OA
ATOM     31  C   UNL     1     -28.874  -5.716 -25.990  1.00  0.00     0.040 C 
ATOM     32  C   UNL     1     -26.031  -4.658 -22.302  1.00  0.00     0.040 C 
ENDBRANCH  15  25
ENDBRANCH   1  11
BRANCH   8  33
ATOM     33  N   UNL     1     -17.000  -4.592 -25.715  1.00  0.00    -0.383 N 
ATOM     34  H   UNL     1     -17.576  -4.293 -26.501  1.00  0.00     0.158 HD
ATOM     35  H   UNL     1     -17.183  -4.018 -24.899  1.00  0.00     0.158 HD
ENDBRANCH   8  33
BRANCH   6  36
ATOM     36  N   UNL     1     -15.672  -8.711 -24.075  1.00  0.00    -0.368 N 
ATOM     37  H   UNL     1     -15.842  -9.689 -24.263  1.00  0.00     0.159 HD
ATOM     38  H   UNL     1     -14.762  -8.343 -24.313  1.00  0.00     0.159 HD
ENDBRANCH   6  36
TORSDOF 5
ENDMDL
MODEL 6
REMARK VINA RESULT:    -9.187      1.713      3.133
REMARK INTER + INTRA:         -12.258
REMARK INTER:                 -11.312
REMARK INTRA:                  -0.946
REMARK UNBOUND:                -0.923
REMARK SMILES C[C@@H]1CN(c2nc(-c3cc(F)cc(F)c3)cc(-c3ccc4nc(N)nc(N)c4c3)n2)C[C@H](C)O1
REMARK SMILES IDX 18 1 29 2 28 3 21 4 22 5 23 6 25 7 26 8 20 9 19 10 17 11
REMARK SMILES IDX 16 12 30 13 7 14 5 15 6 16 8 17 15 18 9 19 13 20 10 21 12 22
REMARK SMILES IDX 14 23 11 24 4 25 3 26 31 27 2 28 32 29 34 30 1 31 33 32
REMARK SMILES IDX 27 33 24 36
REMARK H PARENT 27 34 27 35 24 37 24 38
ROOT
ATOM      1  C   UNL     1     -20.362  -7.497 -26.507  1.00  0.00     0.001 A 
ATOM      2  C   UNL     1     -19.081  -7.073 -26.119  1.00  0.00     0.024 A 
ATOM      3  C   UNL     1     -18.207  -7.913 -25.378  1.00  0.00     0.043 A 
ATOM      4  C   UNL     1     -18.613  -9.194 -25.007  1.00  0.00     0.078 A 
ATOM      5  N   UNL     1     -17.839 -10.017 -24.291  1.00  0.00    -0.213 NA
ATOM      6  C   UNL     1     -16.633  -9.574 -23.937  1.00  0.00     0.222 A 
ATOM      7  N   UNL     1     -16.142  -8.370 -24.225  1.00  0.00    -0.196 NA
ATOM      8  C   UNL     1     -16.921  -7.564 -24.956  1.00  0.00     0.136 A 
ATOM      9  C   UNL     1     -19.872  -9.620 -25.401  1.00  0.00     0.030 A 
ATOM     10  C   UNL     1     -20.734  -8.798 -26.141  1.00  0.00     0.012 A 
ENDROOT
BRANCH   1  11
ATOM     11  C   UNL     1     -21.281  -6.632 -27.271  1.00  0.00     0.076 A 
ATOM     12  C   UNL     1     -21.106  -6.351 -28.610  1.00  0.00     0.058 A 
ATOM     13  N   UNL     1     -22.309  -6.117 -26.567  1.00  0.00    -0.213 NA
ATOM     14  C   UNL     1     -22.042  -5.527 -29.197  1.00  0.00     0.077 A 
ATOM     15  C   UNL     1     -23.185  -5.319 -27.191  1.00  0.00     0.226 A 
ATOM     16  N   UNL     1     -23.071  -5.013 -28.492  1.00  0.00    -0.213 NA
BRANCH  14  17
ATOM     17  C   UNL     1     -21.994  -5.132 -30.620  1.00  0.00     0.006 A 
ATOM     18  C   UNL     1     -20.937  -5.508 -31.469  1.00  0.00     0.049 A 
ATOM     19  C   UNL     1     -23.029  -4.365 -31.187  1.00  0.00     0.049 A 
ATOM     20  C   UNL     1     -20.923  -5.122 -32.810  1.00  0.00     0.126 A 
ATOM     21  C   UNL     1     -22.996  -3.989 -32.529  1.00  0.00     0.126 A 
ATOM     22  C   UNL     1     -21.945  -4.360 -33.351  1.00  0.00     0.078 A 
ATOM     23  F   UNL     1     -19.901  -5.499 -33.588  1.00  0.00    -0.207 F 
ATOM     24  F   UNL     1     -23.998  -3.256 -33.032  1.00  0.00    -0.207 F 
ENDBRANCH  14  17
BRANCH  15  25
ATOM     25  N   UNL     1     -24.274  -4.818 -26.476  1.00  0.00    -0.336 N 
ATOM     26  C   UNL     1     -23.904  -3.901 -25.385  1.00  0.00     0.151 C 
ATOM     27  C   UNL     1     -25.376  -4.331 -27.319  1.00  0.00     0.151 C 
ATOM     28  C   UNL     1     -25.160  -3.495 -24.586  1.00  0.00     0.135 C 
ATOM     29  C   UNL     1     -26.569  -3.906 -26.438  1.00  0.00     0.135 C 
ATOM     30  O   UNL     1     -26.164  -2.936 -25.453  1.00  0.00    -0.372 OA
ATOM     31  C   UNL     1     -24.823  -2.447 -23.536  1.00  0.00     0.040 C 
ATOM     32  C   UNL     1     -27.671  -3.275 -27.278  1.00  0.00     0.040 C 
ENDBRANCH  15  25
ENDBRANCH   1  11
BRANCH   8  33
ATOM     33  N   UNL     1     -16.359  -6.316 -25.264  1.00  0.00    -0.383 N 
ATOM     34  H   UNL     1     -16.136  -6.340 -26.259  1.00  0.00     0.158 HD
ATOM     35  H   UNL     1     -17.015  -5.569 -25.062  1.00  0.00     0.158 HD
ENDBRANCH   8  33
BRANCH   6  36
ATOM     36  N   UNL     1     -15.847 -10.416 -23.177  1.00  0.00    -0.368 N 
ATOM     37  H   UNL     1     -16.361 -10.722 -22.363  1.00  0.00     0.159 HD
ATOM     38  H   UNL     1     -15.444 -11.130 -23.768  1.00  0.00     0.159 HD
ENDBRANCH   6  36
TORSDOF 5
ENDMDL
MODEL 7
REMARK VINA RESULT:    -9.116      2.641      6.864
REMARK INTER + INTRA:         -12.171
REMARK INTER:                 -11.274
REMARK INTRA:                  -0.897
REMARK UNBOUND:                -0.923
REMARK SMILES C[C@@H]1CN(c2nc(-c3cc(F)cc(F)c3)cc(-c3ccc4nc(N)nc(N)c4c3)n2)C[C@H](C)O1
REMARK SMILES IDX 18 1 29 2 28 3 21 4 22 5 23 6 25 7 26 8 20 9 19 10 17 11
REMARK SMILES IDX 16 12 30 13 7 14 5 15 6 16 8 17 15 18 9 19 13 20 10 21 12 22
REMARK SMILES IDX 14 23 11 24 4 25 3 26 31 27 2 28 32 29 34 30 1 31 33 32
REMARK SMILES IDX 27 33 24 36
REMARK H PARENT 27 34 27 35 24 37 24 38
ROOT
ATOM      1  C   UNL     1     -24.265  -4.515 -25.299  1.00  0.00     0.001 A 
ATOM      2  C   UNL     1     -24.978  -5.656 -24.899  1.00  0.00     0.024 A 
ATOM      3  C   UNL     1     -25.857  -5.635 -23.783  1.00  0.00     0.043 A 
ATOM      4  C   UNL     1     -26.027  -4.464 -23.045  1.00  0.00     0.078 A 
ATOM      5  N   UNL     1     -26.824  -4.396 -21.973  1.00  0.00    -0.213 NA
ATOM      6  C   UNL     1     -27.478  -5.503 -21.622  1.00  0.00     0.222 A 
ATOM      7  N   UNL     1     -27.389  -6.678 -22.244  1.00  0.00    -0.196 NA
ATOM      8  C   UNL     1     -26.600  -6.726 -23.324  1.00  0.00     0.136 A 
ATOM      9  C   UNL     1     -25.334  -3.333 -23.447  1.00  0.00     0.030 A 
ATOM     10  C   UNL     1     -24.473  -3.346 -24.554  1.00  0.00     0.012 A 
ENDROOT
BRANCH   1  11
ATOM     11  C   UNL     1     -23.344  -4.525 -26.453  1.00  0.00     0.076 A 
ATOM     12  C   UNL     1     -23.693  -4.035 -27.694  1.00  0.00     0.058 A 
ATOM     13  N   UNL     1     -22.130  -5.060 -26.218  1.00  0.00    -0.213 NA
ATOM     14  C   UNL     1     -22.734  -4.109 -28.681  1.00  0.00     0.077 A 
ATOM     15  C   UNL     1     -21.239  -5.107 -27.217  1.00  0.00     0.226 A 
ATOM     16  N   UNL     1     -21.518  -4.643 -28.444  1.00  0.00    -0.213 NA
BRANCH  14  17
ATOM     17  C   UNL     1     -22.953  -3.628 -30.061  1.00  0.00     0.006 A 
ATOM     18  C   UNL     1     -22.548  -4.367 -31.187  1.00  0.00     0.049 A 
ATOM     19  C   UNL     1     -23.598  -2.400 -30.299  1.00  0.00     0.049 A 
ATOM     20  C   UNL     1     -22.773  -3.887 -32.478  1.00  0.00     0.126 A 
ATOM     21  C   UNL     1     -23.813  -1.938 -31.596  1.00  0.00     0.126 A 
ATOM     22  C   UNL     1     -23.402  -2.673 -32.696  1.00  0.00     0.078 A 
ATOM     23  F   UNL     1     -22.375  -4.619 -33.526  1.00  0.00    -0.207 F 
ATOM     24  F   UNL     1     -24.427  -0.762 -31.782  1.00  0.00    -0.207 F 
ENDBRANCH  14  17
BRANCH  15  25
ATOM     25  N   UNL     1     -19.967  -5.623 -26.966  1.00  0.00    -0.336 N 
ATOM     26  C   UNL     1     -19.063  -4.683 -26.283  1.00  0.00     0.151 C 
ATOM     27  C   UNL     1     -19.969  -6.977 -26.391  1.00  0.00     0.151 C 
ATOM     28  C   UNL     1     -17.655  -5.302 -26.154  1.00  0.00     0.135 C 
ATOM     29  C   UNL     1     -18.522  -7.497 -26.258  1.00  0.00     0.135 C 
ATOM     30  O   UNL     1     -17.712  -6.581 -25.497  1.00  0.00    -0.372 OA
ATOM     31  C   UNL     1     -16.738  -4.404 -25.337  1.00  0.00     0.040 C 
ATOM     32  C   UNL     1     -18.490  -8.841 -25.544  1.00  0.00     0.040 C 
ENDBRANCH  15  25
ENDBRANCH   1  11
BRANCH   8  33
ATOM     33  N   UNL     1     -26.554  -7.971 -23.968  1.00  0.00    -0.383 N 
ATOM     34  H   UNL     1     -26.828  -7.804 -24.936  1.00  0.00     0.158 HD
ATOM     35  H   UNL     1     -25.619  -8.362 -23.924  1.00  0.00     0.158 HD
ENDBRANCH   8  33
BRANCH   6  36
ATOM     36  N   UNL     1     -28.280  -5.436 -20.502  1.00  0.00    -0.368 N 
ATOM     37  H   UNL     1     -28.555  -4.478 -20.334  1.00  0.00     0.159 HD
ATOM     38  H   UNL     1     -29.016  -6.126 -20.568  1.00  0.00     0.159 HD
ENDBRANCH   6  36
TORSDOF 5
ENDMDL
MODEL 8
REMARK VINA RESULT:    -9.043      1.568      2.665
REMARK INTER + INTRA:         -12.081
REMARK INTER:                 -11.138
REMARK INTRA:                  -0.943
REMARK UNBOUND:                -0.923
REMARK SMILES C[C@@H]1CN(c2nc(-c3cc(F)cc(F)c3)cc(-c3ccc4nc(N)nc(N)c4c3)n2)C[C@H](C)O1
REMARK SMILES IDX 18 1 29 2 28 3 21 4 22 5 23 6 25 7 26 8 20 9 19 10 17 11
REMARK SMILES IDX 16 12 30 13 7 14 5 15 6 16 8 17 15 18 9 19 13 20 10 21 12 22
REMARK SMILES IDX 14 23 11 24 4 25 3 26 31 27 2 28 32 29 34 30 1 31 33 32
REMARK SMILES IDX 27 33 24 36
REMARK H PARENT 27 34 27 35 24 37 24 38
ROOT
ATOM      1  C   UNL     1     -19.531  -6.576 -26.456  1.00  0.00     0.001 A 
ATOM      2  C   UNL     1     -19.620  -7.888 -25.965  1.00  0.00     0.024 A 
ATOM      3  C   UNL     1     -18.557  -8.489 -25.239  1.00  0.00     0.043 A 
ATOM      4  C   UNL     1     -17.380  -7.780 -25.003  1.00  0.00     0.078 A 
ATOM      5  N   UNL     1     -16.341  -8.305 -24.345  1.00  0.00    -0.213 NA
ATOM      6  C   UNL     1     -16.464  -9.557 -23.901  1.00  0.00     0.222 A 
ATOM      7  N   UNL     1     -17.533 -10.332 -24.073  1.00  0.00    -0.196 NA
ATOM      8  C   UNL     1     -18.571  -9.787 -24.719  1.00  0.00     0.136 A 
ATOM      9  C   UNL     1     -17.295  -6.479 -25.475  1.00  0.00     0.030 A 
ATOM     10  C   UNL     1     -18.346  -5.879 -26.183  1.00  0.00     0.012 A 
ENDROOT
BRANCH   1  11
ATOM     11  C   UNL     1     -20.625  -5.943 -27.217  1.00  0.00     0.076 A 
ATOM     12  C   UNL     1     -20.562  -5.724 -28.577  1.00  0.00     0.058 A 
ATOM     13  N   UNL     1     -21.699  -5.576 -26.490  1.00  0.00    -0.213 NA
ATOM     14  C   UNL     1     -21.657  -5.121 -29.159  1.00  0.00     0.077 A 
ATOM     15  C   UNL     1     -22.732  -4.992 -27.110  1.00  0.00     0.226 A 
ATOM     16  N   UNL     1     -22.731  -4.756 -28.430  1.00  0.00    -0.213 NA
BRANCH  14  17
ATOM     17  C   UNL     1     -21.743  -4.819 -30.603  1.00  0.00     0.006 A 
ATOM     18  C   UNL     1     -20.666  -5.035 -31.482  1.00  0.00     0.049 A 
ATOM     19  C   UNL     1     -22.931  -4.309 -31.159  1.00  0.00     0.049 A 
ATOM     20  C   UNL     1     -20.781  -4.742 -32.841  1.00  0.00     0.126 A 
ATOM     21  C   UNL     1     -23.025  -4.023 -32.520  1.00  0.00     0.126 A 
ATOM     22  C   UNL     1     -21.954  -4.232 -33.372  1.00  0.00     0.078 A 
ATOM     23  F   UNL     1     -19.734  -4.961 -33.647  1.00  0.00    -0.207 F 
ATOM     24  F   UNL     1     -24.171  -3.535 -33.012  1.00  0.00    -0.207 F 
ENDBRANCH  14  17
BRANCH  15  25
ATOM     25  N   UNL     1     -23.862  -4.649 -26.366  1.00  0.00    -0.336 N 
ATOM     26  C   UNL     1     -23.578  -3.792 -25.203  1.00  0.00     0.151 C 
ATOM     27  C   UNL     1     -25.003  -4.198 -27.177  1.00  0.00     0.151 C 
ATOM     28  C   UNL     1     -24.867  -3.565 -24.385  1.00  0.00     0.135 C 
ATOM     29  C   UNL     1     -26.231  -3.954 -26.275  1.00  0.00     0.135 C 
ATOM     30  O   UNL     1     -25.916  -3.032 -25.214  1.00  0.00    -0.372 OA
ATOM     31  C   UNL     1     -24.627  -2.577 -23.253  1.00  0.00     0.040 C 
ATOM     32  C   UNL     1     -27.384  -3.360 -27.072  1.00  0.00     0.040 C 
ENDBRANCH  15  25
ENDBRANCH   1  11
BRANCH   8  33
ATOM     33  N   UNL     1     -19.688 -10.623 -24.857  1.00  0.00    -0.383 N 
ATOM     34  H   UNL     1     -19.361 -11.462 -25.334  1.00  0.00     0.158 HD
ATOM     35  H   UNL     1     -20.075 -10.856 -23.948  1.00  0.00     0.158 HD
ENDBRANCH   8  33
BRANCH   6  36
ATOM     36  N   UNL     1     -15.381 -10.104 -23.244  1.00  0.00    -0.368 N 
ATOM     37  H   UNL     1     -15.700 -10.768 -22.552  1.00  0.00     0.159 HD
ATOM     38  H   UNL     1     -14.701 -10.426 -23.919  1.00  0.00     0.159 HD
ENDBRANCH   6  36
TORSDOF 5
ENDMDL
MODEL 9
REMARK VINA RESULT:    -9.017      1.572      2.368
REMARK INTER + INTRA:         -12.049
REMARK INTER:                 -11.117
REMARK INTRA:                  -0.932
REMARK UNBOUND:                -0.923
REMARK SMILES C[C@@H]1CN(c2nc(-c3cc(F)cc(F)c3)cc(-c3ccc4nc(N)nc(N)c4c3)n2)C[C@H](C)O1
REMARK SMILES IDX 18 1 29 2 28 3 21 4 22 5 23 6 25 7 26 8 20 9 19 10 17 11
REMARK SMILES IDX 16 12 30 13 7 14 5 15 6 16 8 17 15 18 9 19 13 20 10 21 12 22
REMARK SMILES IDX 14 23 11 24 4 25 3 26 31 27 2 28 32 29 34 30 1 31 33 32
REMARK SMILES IDX 27 33 24 36
REMARK H PARENT 27 34 27 35 24 37 24 38
ROOT
ATOM      1  C   UNL     1     -20.366  -7.326 -26.493  1.00  0.00     0.001 A 
ATOM      2  C   UNL     1     -19.076  -6.972 -26.069  1.00  0.00     0.024 A 
ATOM      3  C   UNL     1     -18.253  -7.874 -25.343  1.00  0.00     0.043 A 
ATOM      4  C   UNL     1     -18.720  -9.149 -25.025  1.00  0.00     0.078 A 
ATOM      5  N   UNL     1     -17.996 -10.029 -24.325  1.00  0.00    -0.213 NA
ATOM      6  C   UNL     1     -16.778  -9.651 -23.935  1.00  0.00     0.222 A 
ATOM      7  N   UNL     1     -16.230  -8.460 -24.172  1.00  0.00    -0.196 NA
ATOM      8  C   UNL     1     -16.961  -7.596 -24.887  1.00  0.00     0.136 A 
ATOM      9  C   UNL     1     -19.989  -9.506 -25.455  1.00  0.00     0.030 A 
ATOM     10  C   UNL     1     -20.800  -8.621 -26.180  1.00  0.00     0.012 A 
ENDROOT
BRANCH   1  11
ATOM     11  C   UNL     1     -21.233  -6.396 -27.242  1.00  0.00     0.076 A 
ATOM     12  C   UNL     1     -21.123  -6.199 -28.602  1.00  0.00     0.058 A 
ATOM     13  N   UNL     1     -22.144  -5.733 -26.502  1.00  0.00    -0.213 NA
ATOM     14  C   UNL     1     -21.998  -5.299 -29.172  1.00  0.00     0.077 A 
ATOM     15  C   UNL     1     -22.967  -4.868 -27.110  1.00  0.00     0.226 A 
ATOM     16  N   UNL     1     -22.910  -4.638 -28.430  1.00  0.00    -0.213 NA
BRANCH  14  17
ATOM     17  C   UNL     1     -22.006  -4.979 -30.614  1.00  0.00     0.006 A 
ATOM     18  C   UNL     1     -23.040  -4.237 -31.213  1.00  0.00     0.049 A 
ATOM     19  C   UNL     1     -20.953  -5.400 -31.448  1.00  0.00     0.049 A 
ATOM     20  C   UNL     1     -23.015  -3.947 -32.578  1.00  0.00     0.126 A 
ATOM     21  C   UNL     1     -20.948  -5.101 -32.809  1.00  0.00     0.126 A 
ATOM     22  C   UNL     1     -21.977  -4.377 -33.387  1.00  0.00     0.078 A 
ATOM     23  F   UNL     1     -24.017  -3.238 -33.113  1.00  0.00    -0.207 F 
ATOM     24  F   UNL     1     -19.930  -5.522 -33.571  1.00  0.00    -0.207 F 
ENDBRANCH  14  17
BRANCH  15  25
ATOM     25  N   UNL     1     -23.938  -4.211 -26.354  1.00  0.00    -0.336 N 
ATOM     26  C   UNL     1     -25.220  -4.930 -26.270  1.00  0.00     0.151 C 
ATOM     27  C   UNL     1     -23.452  -3.701 -25.062  1.00  0.00     0.151 C 
ATOM     28  C   UNL     1     -26.258  -4.074 -25.514  1.00  0.00     0.135 C 
ATOM     29  C   UNL     1     -24.566  -2.898 -24.358  1.00  0.00     0.135 C 
ATOM     30  O   UNL     1     -25.763  -3.687 -24.219  1.00  0.00    -0.372 OA
ATOM     31  C   UNL     1     -27.551  -4.847 -25.300  1.00  0.00     0.040 C 
ATOM     32  C   UNL     1     -24.132  -2.472 -22.962  1.00  0.00     0.040 C 
ENDBRANCH  15  25
ENDBRANCH   1  11
BRANCH   8  33
ATOM     33  N   UNL     1     -16.340  -6.364 -25.141  1.00  0.00    -0.383 N 
ATOM     34  H   UNL     1     -16.696  -5.715 -24.440  1.00  0.00     0.158 HD
ATOM     35  H   UNL     1     -15.332  -6.450 -25.071  1.00  0.00     0.158 HD
ENDBRANCH   8  33
BRANCH   6  36
ATOM     36  N   UNL     1     -16.043 -10.551 -23.192  1.00  0.00    -0.368 N 
ATOM     37  H   UNL     1     -15.067 -10.486 -23.442  1.00  0.00     0.159 HD
ATOM     38  H   UNL     1     -16.279 -10.459 -22.214  1.00  0.00     0.159 HD
ENDBRANCH   6  36
TORSDOF 5
ENDMDL
MODEL 10
REMARK VINA RESULT:    -9.000      1.559      2.370
REMARK INTER + INTRA:         -12.028
REMARK INTER:                 -11.086
REMARK INTRA:                  -0.942
REMARK UNBOUND:                -0.923
REMARK SMILES C[C@@H]1CN(c2nc(-c3cc(F)cc(F)c3)cc(-c3ccc4nc(N)nc(N)c4c3)n2)C[C@H](C)O1
REMARK SMILES IDX 18 1 29 2 28 3 21 4 22 5 23 6 25 7 26 8 20 9 19 10 17 11
REMARK SMILES IDX 16 12 30 13 7 14 5 15 6 16 8 17 15 18 9 19 13 20 10 21 12 22
REMARK SMILES IDX 14 23 11 24 4 25 3 26 31 27 2 28 32 29 34 30 1 31 33 32
REMARK SMILES IDX 27 33 24 36
REMARK H PARENT 27 34 27 35 24 37 24 38
ROOT
ATOM      1  C   UNL     1     -19.572  -6.643 -26.465  1.00  0.00     0.001 A 
ATOM      2  C   UNL     1     -19.672  -7.944 -25.946  1.00  0.00     0.024 A 
ATOM      3  C   UNL     1     -18.606  -8.546 -25.226  1.00  0.00     0.043 A 
ATOM      4  C   UNL     1     -17.415  -7.849 -25.023  1.00  0.00     0.078 A 
ATOM      5  N   UNL     1     -16.373  -8.376 -24.372  1.00  0.00    -0.213 NA
ATOM      6  C   UNL     1     -16.505  -9.617 -23.901  1.00  0.00     0.222 A 
ATOM      7  N   UNL     1     -17.588 -10.380 -24.041  1.00  0.00    -0.196 NA
ATOM      8  C   UNL     1     -18.629  -9.833 -24.680  1.00  0.00     0.136 A 
ATOM      9  C   UNL     1     -17.320  -6.559 -25.522  1.00  0.00     0.030 A 
ATOM     10  C   UNL     1     -18.374  -5.958 -26.225  1.00  0.00     0.012 A 
ENDROOT
BRANCH   1  11
ATOM     11  C   UNL     1     -20.670  -6.009 -27.220  1.00  0.00     0.076 A 
ATOM     12  C   UNL     1     -20.618  -5.799 -28.582  1.00  0.00     0.058 A 
ATOM     13  N   UNL     1     -21.735  -5.632 -26.485  1.00  0.00    -0.213 NA
ATOM     14  C   UNL     1     -21.716  -5.195 -29.158  1.00  0.00     0.077 A 
ATOM     15  C   UNL     1     -22.772  -5.047 -27.100  1.00  0.00     0.226 A 
ATOM     16  N   UNL     1     -22.781  -4.820 -28.421  1.00  0.00    -0.213 NA
BRANCH  14  17
ATOM     17  C   UNL     1     -21.813  -4.901 -30.602  1.00  0.00     0.006 A 
ATOM     18  C   UNL     1     -22.935  -4.268 -31.167  1.00  0.00     0.049 A 
ATOM     19  C   UNL     1     -20.761  -5.237 -31.475  1.00  0.00     0.049 A 
ATOM     20  C   UNL     1     -22.995  -4.001 -32.535  1.00  0.00     0.126 A 
ATOM     21  C   UNL     1     -20.840  -4.963 -32.840  1.00  0.00     0.126 A 
ATOM     22  C   UNL     1     -21.956  -4.346 -33.383  1.00  0.00     0.078 A 
ATOM     23  F   UNL     1     -24.079  -3.396 -33.036  1.00  0.00    -0.207 F 
ATOM     24  F   UNL     1     -19.821  -5.302 -33.639  1.00  0.00    -0.207 F 
ENDBRANCH  14  17
BRANCH  15  25
ATOM     25  N   UNL     1     -23.893  -4.693 -26.348  1.00  0.00    -0.336 N 
ATOM     26  C   UNL     1     -23.598  -3.805 -25.212  1.00  0.00     0.151 C 
ATOM     27  C   UNL     1     -25.049  -4.272 -27.154  1.00  0.00     0.151 C 
ATOM     28  C   UNL     1     -24.877  -3.567 -24.381  1.00  0.00     0.135 C 
ATOM     29  C   UNL     1     -26.265  -4.014 -26.240  1.00  0.00     0.135 C 
ATOM     30  O   UNL     1     -25.943  -3.063 -25.207  1.00  0.00    -0.372 OA
ATOM     31  C   UNL     1     -24.628  -2.548 -23.278  1.00  0.00     0.040 C 
ATOM     32  C   UNL     1     -27.435  -3.450 -27.034  1.00  0.00     0.040 C 
ENDBRANCH  15  25
ENDBRANCH   1  11
BRANCH   8  33
ATOM     33  N   UNL     1     -19.760 -10.656 -24.783  1.00  0.00    -0.383 N 
ATOM     34  H   UNL     1     -20.168 -10.468 -25.698  1.00  0.00     0.158 HD
ATOM     35  H   UNL     1     -19.500 -11.633 -24.700  1.00  0.00     0.158 HD
ENDBRANCH   8  33
BRANCH   6  36
ATOM     36  N   UNL     1     -15.420 -10.167 -23.252  1.00  0.00    -0.368 N 
ATOM     37  H   UNL     1     -14.781  -9.436 -22.971  1.00  0.00     0.159 HD
ATOM     38  H   UNL     1     -15.739 -10.805 -22.536  1.00  0.00     0.159 HD
ENDBRANCH   6  36
TORSDOF 5
ENDMDL
MODEL 11
REMARK VINA RESULT:    -8.938      3.886      8.528
REMARK INTER + INTRA:         -11.952
REMARK INTER:                 -11.007
REMARK INTRA:                  -0.945
REMARK UNBOUND:                -0.923
REMARK SMILES C[C@@H]1CN(c2nc(-c3cc(F)cc(F)c3)cc(-c3ccc4nc(N)nc(N)c4c3)n2)C[C@H](C)O1
REMARK SMILES IDX 18 1 29 2 28 3 21 4 22 5 23 6 25 7 26 8 20 9 19 10 17 11
REMARK SMILES IDX 16 12 30 13 7 14 5 15 6 16 8 17 15 18 9 19 13 20 10 21 12 22
REMARK SMILES IDX 14 23 11 24 4 25 3 26 31 27 2 28 32 29 34 30 1 31 33 32
REMARK SMILES IDX 27 33 24 36
REMARK H PARENT 27 34 27 35 24 37 24 38
ROOT
ATOM      1  C   UNL     1     -24.988  -5.099 -26.115  1.00  0.00     0.001 A 
ATOM      2  C   UNL     1     -26.027  -5.800 -26.749  1.00  0.00     0.024 A 
ATOM      3  C   UNL     1     -27.299  -5.965 -26.138  1.00  0.00     0.043 A 
ATOM      4  C   UNL     1     -27.544  -5.433 -24.873  1.00  0.00     0.078 A 
ATOM      5  N   UNL     1     -28.716  -5.577 -24.244  1.00  0.00    -0.213 NA
ATOM      6  C   UNL     1     -29.673  -6.256 -24.876  1.00  0.00     0.222 A 
ATOM      7  N   UNL     1     -29.553  -6.815 -26.079  1.00  0.00    -0.196 NA
ATOM      8  C   UNL     1     -28.381  -6.647 -26.703  1.00  0.00     0.136 A 
ATOM      9  C   UNL     1     -26.524  -4.728 -24.251  1.00  0.00     0.030 A 
ATOM     10  C   UNL     1     -25.271  -4.555 -24.855  1.00  0.00     0.012 A 
ENDROOT
BRANCH   1  11
ATOM     11  C   UNL     1     -23.661  -4.927 -26.736  1.00  0.00     0.076 A 
ATOM     12  C   UNL     1     -22.491  -5.326 -26.125  1.00  0.00     0.058 A 
ATOM     13  N   UNL     1     -23.661  -4.335 -27.947  1.00  0.00    -0.213 NA
ATOM     14  C   UNL     1     -21.321  -5.103 -26.819  1.00  0.00     0.077 A 
ATOM     15  C   UNL     1     -22.493  -4.141 -28.573  1.00  0.00     0.226 A 
ATOM     16  N   UNL     1     -21.323  -4.512 -28.032  1.00  0.00    -0.213 NA
BRANCH  14  17
ATOM     17  C   UNL     1     -19.988  -5.473 -26.300  1.00  0.00     0.006 A 
ATOM     18  C   UNL     1     -19.701  -6.762 -25.816  1.00  0.00     0.049 A 
ATOM     19  C   UNL     1     -18.938  -4.535 -26.287  1.00  0.00     0.049 A 
ATOM     20  C   UNL     1     -18.430  -7.081 -25.336  1.00  0.00     0.126 A 
ATOM     21  C   UNL     1     -17.675  -4.874 -25.803  1.00  0.00     0.126 A 
ATOM     22  C   UNL     1     -17.410  -6.145 -25.321  1.00  0.00     0.078 A 
ATOM     23  F   UNL     1     -18.195  -8.318 -24.883  1.00  0.00    -0.207 F 
ATOM     24  F   UNL     1     -16.703  -3.953 -25.803  1.00  0.00    -0.207 F 
ENDBRANCH  14  17
BRANCH  15  25
ATOM     25  N   UNL     1     -22.493  -3.568 -29.845  1.00  0.00    -0.336 N 
ATOM     26  C   UNL     1     -22.123  -4.499 -30.923  1.00  0.00     0.151 C 
ATOM     27  C   UNL     1     -23.684  -2.755 -30.138  1.00  0.00     0.151 C 
ATOM     28  C   UNL     1     -22.042  -3.746 -32.268  1.00  0.00     0.135 C 
ATOM     29  C   UNL     1     -23.536  -2.077 -31.516  1.00  0.00     0.135 C 
ATOM     30  O   UNL     1     -23.271  -3.050 -32.545  1.00  0.00    -0.372 OA
ATOM     31  C   UNL     1     -21.789  -4.710 -33.418  1.00  0.00     0.040 C 
ATOM     32  C   UNL     1     -24.811  -1.339 -31.901  1.00  0.00     0.040 C 
ENDBRANCH  15  25
ENDBRANCH   1  11
BRANCH   8  33
ATOM     33  N   UNL     1     -28.300  -7.225 -27.979  1.00  0.00    -0.383 N 
ATOM     34  H   UNL     1     -27.380  -7.659 -28.039  1.00  0.00     0.158 HD
ATOM     35  H   UNL     1     -29.032  -7.917 -28.104  1.00  0.00     0.158 HD
ENDBRANCH   8  33
BRANCH   6  36
ATOM     36  N   UNL     1     -30.872  -6.425 -24.215  1.00  0.00    -0.368 N 
ATOM     37  H   UNL     1     -31.229  -7.355 -24.384  1.00  0.00     0.159 HD
ATOM     38  H   UNL     1     -30.773  -6.134 -23.252  1.00  0.00     0.159 HD
ENDBRANCH   6  36
TORSDOF 5
ENDMDL
MODEL 12
REMARK VINA RESULT:    -8.873      3.973      8.322
REMARK INTER + INTRA:         -11.871
REMARK INTER:                 -10.945
REMARK INTRA:                  -0.926
REMARK UNBOUND:                -0.923
REMARK SMILES C[C@@H]1CN(c2nc(-c3cc(F)cc(F)c3)cc(-c3ccc4nc(N)nc(N)c4c3)n2)C[C@H](C)O1
REMARK SMILES IDX 18 1 29 2 28 3 21 4 22 5 23 6 25 7 26 8 20 9 19 10 17 11
REMARK SMILES IDX 16 12 30 13 7 14 5 15 6 16 8 17 15 18 9 19 13 20 10 21 12 22
REMARK SMILES IDX 14 23 11 24 4 25 3 26 31 27 2 28 32 29 34 30 1 31 33 32
REMARK SMILES IDX 27 33 24 36
REMARK H PARENT 27 34 27 35 24 37 24 38
ROOT
ATOM      1  C   UNL     1     -24.512  -5.208 -26.230  1.00  0.00     0.001 A 
ATOM      2  C   UNL     1     -24.952  -6.309 -25.478  1.00  0.00     0.024 A 
ATOM      3  C   UNL     1     -26.239  -6.337 -24.877  1.00  0.00     0.043 A 
ATOM      4  C   UNL     1     -27.102  -5.251 -25.016  1.00  0.00     0.078 A 
ATOM      5  N   UNL     1     -28.315  -5.216 -24.453  1.00  0.00    -0.213 NA
ATOM      6  C   UNL     1     -28.693  -6.279 -23.741  1.00  0.00     0.222 A 
ATOM      7  N   UNL     1     -27.953  -7.367 -23.533  1.00  0.00    -0.196 NA
ATOM      8  C   UNL     1     -26.749  -7.393 -24.117  1.00  0.00     0.136 A 
ATOM      9  C   UNL     1     -26.674  -4.168 -25.769  1.00  0.00     0.030 A 
ATOM     10  C   UNL     1     -25.409  -4.141 -26.373  1.00  0.00     0.012 A 
ENDROOT
BRANCH   1  11
ATOM     11  C   UNL     1     -23.175  -5.163 -26.854  1.00  0.00     0.076 A 
ATOM     12  C   UNL     1     -22.025  -5.532 -26.188  1.00  0.00     0.058 A 
ATOM     13  N   UNL     1     -23.146  -4.722 -28.128  1.00  0.00    -0.213 NA
ATOM     14  C   UNL     1     -20.844  -5.440 -26.894  1.00  0.00     0.077 A 
ATOM     15  C   UNL     1     -21.968  -4.651 -28.761  1.00  0.00     0.226 A 
ATOM     16  N   UNL     1     -20.817  -5.000 -28.168  1.00  0.00    -0.213 NA
BRANCH  14  17
ATOM     17  C   UNL     1     -19.529  -5.796 -26.322  1.00  0.00     0.006 A 
ATOM     18  C   UNL     1     -18.505  -4.849 -26.145  1.00  0.00     0.049 A 
ATOM     19  C   UNL     1     -19.258  -7.116 -25.914  1.00  0.00     0.049 A 
ATOM     20  C   UNL     1     -17.275  -5.217 -25.598  1.00  0.00     0.126 A 
ATOM     21  C   UNL     1     -18.023  -7.464 -25.371  1.00  0.00     0.126 A 
ATOM     22  C   UNL     1     -17.020  -6.522 -25.210  1.00  0.00     0.078 A 
ATOM     23  F   UNL     1     -16.324  -4.287 -25.444  1.00  0.00    -0.207 F 
ATOM     24  F   UNL     1     -17.801  -8.731 -24.999  1.00  0.00    -0.207 F 
ENDBRANCH  14  17
BRANCH  15  25
ATOM     25  N   UNL     1     -21.940  -4.235 -30.093  1.00  0.00    -0.336 N 
ATOM     26  C   UNL     1     -21.372  -5.227 -31.020  1.00  0.00     0.151 C 
ATOM     27  C   UNL     1     -23.196  -3.628 -30.561  1.00  0.00     0.151 C 
ATOM     28  C   UNL     1     -21.280  -4.632 -32.441  1.00  0.00     0.135 C 
ATOM     29  C   UNL     1     -23.025  -3.102 -32.001  1.00  0.00     0.135 C 
ATOM     30  O   UNL     1     -22.561  -4.144 -32.880  1.00  0.00    -0.372 OA
ATOM     31  C   UNL     1     -20.819  -5.682 -33.442  1.00  0.00     0.040 C 
ATOM     32  C   UNL     1     -24.348  -2.590 -32.555  1.00  0.00     0.040 C 
ENDBRANCH  15  25
ENDBRANCH   1  11
BRANCH   8  33
ATOM     33  N   UNL     1     -26.010  -8.566 -23.898  1.00  0.00    -0.383 N 
ATOM     34  H   UNL     1     -26.213  -8.858 -22.943  1.00  0.00     0.158 HD
ATOM     35  H   UNL     1     -26.281  -9.287 -24.558  1.00  0.00     0.158 HD
ENDBRANCH   8  33
BRANCH   6  36
ATOM     36  N   UNL     1     -29.933  -6.230 -23.141  1.00  0.00    -0.368 N 
ATOM     37  H   UNL     1     -29.879  -5.696 -22.285  1.00  0.00     0.159 HD
ATOM     38  H   UNL     1     -30.629  -5.951 -23.819  1.00  0.00     0.159 HD
ENDBRANCH   6  36
TORSDOF 5
ENDMDL
MODEL 13
REMARK VINA RESULT:    -8.850      2.713      6.921
REMARK INTER + INTRA:         -11.843
REMARK INTER:                 -10.956
REMARK INTRA:                  -0.888
REMARK UNBOUND:                -0.923
REMARK SMILES C[C@@H]1CN(c2nc(-c3cc(F)cc(F)c3)cc(-c3ccc4nc(N)nc(N)c4c3)n2)C[C@H](C)O1
REMARK SMILES IDX 18 1 29 2 28 3 21 4 22 5 23 6 25 7 26 8 20 9 19 10 17 11
REMARK SMILES IDX 16 12 30 13 7 14 5 15 6 16 8 17 15 18 9 19 13 20 10 21 12 22
REMARK SMILES IDX 14 23 11 24 4 25 3 26 31 27 2 28 32 29 34 30 1 31 33 32
REMARK SMILES IDX 27 33 24 36
REMARK H PARENT 27 34 27 35 24 37 24 38
ROOT
ATOM      1  C   UNL     1     -24.250  -5.649 -25.782  1.00  0.00     0.001 A 
ATOM      2  C   UNL     1     -24.663  -4.665 -24.871  1.00  0.00     0.024 A 
ATOM      3  C   UNL     1     -25.588  -4.949 -23.830  1.00  0.00     0.043 A 
ATOM      4  C   UNL     1     -26.120  -6.231 -23.696  1.00  0.00     0.078 A 
ATOM      5  N   UNL     1     -27.010  -6.547 -22.749  1.00  0.00    -0.213 NA
ATOM      6  C   UNL     1     -27.381  -5.581 -21.908  1.00  0.00     0.222 A 
ATOM      7  N   UNL     1     -26.948  -4.322 -21.944  1.00  0.00    -0.196 NA
ATOM      8  C   UNL     1     -26.045  -4.026 -22.886  1.00  0.00     0.136 A 
ATOM      9  C   UNL     1     -25.704  -7.208 -24.587  1.00  0.00     0.030 A 
ATOM     10  C   UNL     1     -24.783  -6.934 -25.609  1.00  0.00     0.012 A 
ENDROOT
BRANCH   1  11
ATOM     11  C   UNL     1     -23.295  -5.365 -26.871  1.00  0.00     0.076 A 
ATOM     12  C   UNL     1     -23.665  -4.756 -28.051  1.00  0.00     0.058 A 
ATOM     13  N   UNL     1     -22.025  -5.754 -26.642  1.00  0.00    -0.213 NA
ATOM     14  C   UNL     1     -22.669  -4.552 -28.983  1.00  0.00     0.077 A 
ATOM     15  C   UNL     1     -21.100  -5.533 -27.585  1.00  0.00     0.226 A 
ATOM     16  N   UNL     1     -21.398  -4.941 -28.751  1.00  0.00    -0.213 NA
BRANCH  14  17
ATOM     17  C   UNL     1     -22.904  -3.914 -30.294  1.00  0.00     0.006 A 
ATOM     18  C   UNL     1     -23.559  -2.676 -30.421  1.00  0.00     0.049 A 
ATOM     19  C   UNL     1     -22.460  -4.528 -31.480  1.00  0.00     0.049 A 
ATOM     20  C   UNL     1     -23.762  -2.098 -31.674  1.00  0.00     0.126 A 
ATOM     21  C   UNL     1     -22.674  -3.934 -32.723  1.00  0.00     0.126 A 
ATOM     22  C   UNL     1     -23.328  -2.718 -32.833  1.00  0.00     0.078 A 
ATOM     23  F   UNL     1     -24.389  -0.917 -31.755  1.00  0.00    -0.207 F 
ATOM     24  F   UNL     1     -22.240  -4.551 -33.830  1.00  0.00    -0.207 F 
ENDBRANCH  14  17
BRANCH  15  25
ATOM     25  N   UNL     1     -19.776  -5.896 -27.334  1.00  0.00    -0.336 N 
ATOM     26  C   UNL     1     -19.083  -5.015 -26.381  1.00  0.00     0.151 C 
ATOM     27  C   UNL     1     -19.586  -7.331 -27.071  1.00  0.00     0.151 C 
ATOM     28  C   UNL     1     -17.601  -5.429 -26.258  1.00  0.00     0.135 C 
ATOM     29  C   UNL     1     -18.083  -7.646 -26.919  1.00  0.00     0.135 C 
ATOM     30  O   UNL     1     -17.482  -6.819 -25.904  1.00  0.00    -0.372 OA
ATOM     31  C   UNL     1     -16.895  -4.617 -25.182  1.00  0.00     0.040 C 
ATOM     32  C   UNL     1     -17.868  -9.098 -26.515  1.00  0.00     0.040 C 
ENDBRANCH  15  25
ENDBRANCH   1  11
BRANCH   8  33
ATOM     33  N   UNL     1     -25.592  -2.698 -22.875  1.00  0.00    -0.383 N 
ATOM     34  H   UNL     1     -25.448  -2.453 -21.896  1.00  0.00     0.158 HD
ATOM     35  H   UNL     1     -24.726  -2.612 -23.396  1.00  0.00     0.158 HD
ENDBRANCH   8  33
BRANCH   6  36
ATOM     36  N   UNL     1     -28.318  -5.904 -20.948  1.00  0.00    -0.368 N 
ATOM     37  H   UNL     1     -28.233  -6.880 -20.700  1.00  0.00     0.159 HD
ATOM     38  H   UNL     1     -28.282  -5.229 -20.197  1.00  0.00     0.159 HD
ENDBRANCH   6  36
TORSDOF 5
ENDMDL
MODEL 14
REMARK VINA RESULT:    -8.808      2.930      7.415
REMARK INTER + INTRA:         -11.792
REMARK INTER:                 -10.858
REMARK INTRA:                  -0.933
REMARK UNBOUND:                -0.923
REMARK SMILES C[C@@H]1CN(c2nc(-c3cc(F)cc(F)c3)cc(-c3ccc4nc(N)nc(N)c4c3)n2)C[C@H](C)O1
REMARK SMILES IDX 18 1 29 2 28 3 21 4 22 5 23 6 25 7 26 8 20 9 19 10 17 11
REMARK SMILES IDX 16 12 30 13 7 14 5 15 6 16 8 17 15 18 9 19 13 20 10 21 12 22
REMARK SMILES IDX 14 23 11 24 4 25 3 26 31 27 2 28 32 29 34 30 1 31 33 32
REMARK SMILES IDX 27 33 24 36
REMARK H PARENT 27 34 27 35 24 37 24 38
ROOT
ATOM      1  C   UNL     1     -24.873  -5.553 -26.298  1.00  0.00     0.001 A 
ATOM      2  C   UNL     1     -25.955  -6.413 -26.544  1.00  0.00     0.024 A 
ATOM      3  C   UNL     1     -27.128  -6.387 -25.743  1.00  0.00     0.043 A 
ATOM      4  C   UNL     1     -27.227  -5.499 -24.672  1.00  0.00     0.078 A 
ATOM      5  N   UNL     1     -28.298  -5.448 -23.873  1.00  0.00    -0.213 NA
ATOM      6  C   UNL     1     -29.301  -6.286 -24.136  1.00  0.00     0.222 A 
ATOM      7  N   UNL     1     -29.317  -7.181 -25.123  1.00  0.00    -0.196 NA
ATOM      8  C   UNL     1     -28.245  -7.208 -25.924  1.00  0.00     0.136 A 
ATOM      9  C   UNL     1     -26.164  -4.640 -24.436  1.00  0.00     0.030 A 
ATOM     10  C   UNL     1     -25.009  -4.656 -25.231  1.00  0.00     0.012 A 
ENDROOT
BRANCH   1  11
ATOM     11  C   UNL     1     -23.647  -5.575 -27.119  1.00  0.00     0.076 A 
ATOM     12  C   UNL     1     -23.635  -5.238 -28.456  1.00  0.00     0.058 A 
ATOM     13  N   UNL     1     -22.527  -5.961 -26.476  1.00  0.00    -0.213 NA
ATOM     14  C   UNL     1     -22.418  -5.303 -29.101  1.00  0.00     0.077 A 
ATOM     15  C   UNL     1     -21.373  -6.008 -27.155  1.00  0.00     0.226 A 
ATOM     16  N   UNL     1     -21.298  -5.688 -28.455  1.00  0.00    -0.213 NA
BRANCH  14  17
ATOM     17  C   UNL     1     -22.240  -4.975 -30.530  1.00  0.00     0.006 A 
ATOM     18  C   UNL     1     -21.161  -5.468 -31.286  1.00  0.00     0.049 A 
ATOM     19  C   UNL     1     -23.169  -4.156 -31.199  1.00  0.00     0.049 A 
ATOM     20  C   UNL     1     -21.024  -5.143 -32.636  1.00  0.00     0.126 A 
ATOM     21  C   UNL     1     -23.014  -3.842 -32.549  1.00  0.00     0.126 A 
ATOM     22  C   UNL     1     -21.941  -4.328 -33.278  1.00  0.00     0.078 A 
ATOM     23  F   UNL     1     -19.984  -5.631 -33.323  1.00  0.00    -0.207 F 
ATOM     24  F   UNL     1     -23.916  -3.056 -33.149  1.00  0.00    -0.207 F 
ENDBRANCH  14  17
BRANCH  15  25
ATOM     25  N   UNL     1     -20.205  -6.366 -26.481  1.00  0.00    -0.336 N 
ATOM     26  C   UNL     1     -19.582  -7.604 -26.978  1.00  0.00     0.151 C 
ATOM     27  C   UNL     1     -19.259  -5.257 -26.285  1.00  0.00     0.151 C 
ATOM     28  C   UNL     1     -18.368  -7.975 -26.099  1.00  0.00     0.135 C 
ATOM     29  C   UNL     1     -18.060  -5.728 -25.436  1.00  0.00     0.135 C 
ATOM     30  O   UNL     1     -17.433  -6.883 -26.025  1.00  0.00    -0.372 OA
ATOM     31  C   UNL     1     -17.630  -9.177 -26.669  1.00  0.00     0.040 C 
ATOM     32  C   UNL     1     -17.004  -4.636 -25.331  1.00  0.00     0.040 C 
ENDBRANCH  15  25
ENDBRANCH   1  11
BRANCH   8  33
ATOM     33  N   UNL     1     -28.309  -8.142 -26.968  1.00  0.00    -0.383 N 
ATOM     34  H   UNL     1     -28.462  -9.050 -26.530  1.00  0.00     0.158 HD
ATOM     35  H   UNL     1     -29.068  -7.918 -27.602  1.00  0.00     0.158 HD
ENDBRANCH   8  33
BRANCH   6  36
ATOM     36  N   UNL     1     -30.394  -6.249 -23.295  1.00  0.00    -0.368 N 
ATOM     37  H   UNL     1     -30.369  -5.406 -22.738  1.00  0.00     0.159 HD
ATOM     38  H   UNL     1     -31.236  -6.432 -23.823  1.00  0.00     0.159 HD
ENDBRANCH   6  36
TORSDOF 5
ENDMDL
MODEL 15
REMARK VINA RESULT:    -8.779      4.527      9.141
REMARK INTER + INTRA:         -11.755
REMARK INTER:                 -10.863
REMARK INTRA:                  -0.891
REMARK UNBOUND:                -0.923
REMARK SMILES C[C@@H]1CN(c2nc(-c3cc(F)cc(F)c3)cc(-c3ccc4nc(N)nc(N)c4c3)n2)C[C@H](C)O1
REMARK SMILES IDX 18 1 29 2 28 3 21 4 22 5 23 6 25 7 26 8 20 9 19 10 17 11
REMARK SMILES IDX 16 12 30 13 7 14 5 15 6 16 8 17 15 18 9 19 13 20 10 21 12 22
REMARK SMILES IDX 14 23 11 24 4 25 3 26 31 27 2 28 32 29 34 30 1 31 33 32
REMARK SMILES IDX 27 33 24 36
REMARK H PARENT 27 34 27 35 24 37 24 38
ROOT
ATOM      1  C   UNL     1     -24.189  -6.098 -28.214  1.00  0.00     0.001 A 
ATOM      2  C   UNL     1     -24.762  -5.094 -27.417  1.00  0.00     0.024 A 
ATOM      3  C   UNL     1     -26.153  -5.070 -27.128  1.00  0.00     0.043 A 
ATOM      4  C   UNL     1     -26.993  -6.054 -27.646  1.00  0.00     0.078 A 
ATOM      5  N   UNL     1     -28.312  -6.067 -27.425  1.00  0.00    -0.213 NA
ATOM      6  C   UNL     1     -28.818  -5.092 -26.668  1.00  0.00     0.222 A 
ATOM      7  N   UNL     1     -28.116  -4.097 -26.128  1.00  0.00    -0.196 NA
ATOM      8  C   UNL     1     -26.796  -4.107 -26.345  1.00  0.00     0.136 A 
ATOM      9  C   UNL     1     -26.428  -7.054 -28.423  1.00  0.00     0.030 A 
ATOM     10  C   UNL     1     -25.054  -7.087 -28.701  1.00  0.00     0.012 A 
ENDROOT
BRANCH   1  11
ATOM     11  C   UNL     1     -22.747  -6.130 -28.526  1.00  0.00     0.076 A 
ATOM     12  C   UNL     1     -21.769  -6.036 -27.559  1.00  0.00     0.058 A 
ATOM     13  N   UNL     1     -22.441  -6.245 -29.834  1.00  0.00    -0.213 NA
ATOM     14  C   UNL     1     -20.461  -6.079 -27.993  1.00  0.00     0.077 A 
ATOM     15  C   UNL     1     -21.152  -6.279 -30.197  1.00  0.00     0.226 A 
ATOM     16  N   UNL     1     -20.157  -6.197 -29.302  1.00  0.00    -0.213 NA
BRANCH  14  17
ATOM     17  C   UNL     1     -19.302  -5.990 -27.082  1.00  0.00     0.006 A 
ATOM     18  C   UNL     1     -18.929  -4.787 -26.455  1.00  0.00     0.049 A 
ATOM     19  C   UNL     1     -18.527  -7.129 -26.794  1.00  0.00     0.049 A 
ATOM     20  C   UNL     1     -17.831  -4.738 -25.596  1.00  0.00     0.126 A 
ATOM     21  C   UNL     1     -17.433  -7.058 -25.933  1.00  0.00     0.126 A 
ATOM     22  C   UNL     1     -17.072  -5.865 -25.330  1.00  0.00     0.078 A 
ATOM     23  F   UNL     1     -17.507  -3.575 -25.017  1.00  0.00    -0.207 F 
ATOM     24  F   UNL     1     -16.717  -8.163 -25.687  1.00  0.00    -0.207 F 
ENDBRANCH  14  17
BRANCH  15  25
ATOM     25  N   UNL     1     -20.833  -6.441 -31.545  1.00  0.00    -0.336 N 
ATOM     26  C   UNL     1     -20.298  -5.228 -32.185  1.00  0.00     0.151 C 
ATOM     27  C   UNL     1     -20.066  -7.662 -31.839  1.00  0.00     0.151 C 
ATOM     28  C   UNL     1     -20.085  -5.476 -33.694  1.00  0.00     0.135 C 
ATOM     29  C   UNL     1     -19.863  -7.805 -33.362  1.00  0.00     0.135 C 
ATOM     30  O   UNL     1     -19.247  -6.626 -33.915  1.00  0.00    -0.372 OA
ATOM     31  C   UNL     1     -19.410  -4.281 -34.352  1.00  0.00     0.040 C 
ATOM     32  C   UNL     1     -18.960  -8.988 -33.684  1.00  0.00     0.040 C 
ENDBRANCH  15  25
ENDBRANCH   1  11
BRANCH   8  33
ATOM     33  N   UNL     1     -26.087  -3.061 -25.737  1.00  0.00    -0.383 N 
ATOM     34  H   UNL     1     -25.164  -3.431 -25.513  1.00  0.00     0.158 HD
ATOM     35  H   UNL     1     -26.012  -2.268 -26.365  1.00  0.00     0.158 HD
ENDBRANCH   8  33
BRANCH   6  36
ATOM     36  N   UNL     1     -30.181  -5.093 -26.462  1.00  0.00    -0.368 N 
ATOM     37  H   UNL     1     -30.662  -4.972 -27.343  1.00  0.00     0.159 HD
ATOM     38  H   UNL     1     -30.440  -5.892 -25.899  1.00  0.00     0.159 HD
ENDBRANCH   6  36
TORSDOF 5
ENDMDL
MODEL 16
REMARK VINA RESULT:    -8.715      4.480      9.035
REMARK INTER + INTRA:         -11.677
REMARK INTER:                 -10.769
REMARK INTRA:                  -0.908
REMARK UNBOUND:                -0.923
REMARK SMILES C[C@@H]1CN(c2nc(-c3cc(F)cc(F)c3)cc(-c3ccc4nc(N)nc(N)c4c3)n2)C[C@H](C)O1
REMARK SMILES IDX 18 1 29 2 28 3 21 4 22 5 23 6 25 7 26 8 20 9 19 10 17 11
REMARK SMILES IDX 16 12 30 13 7 14 5 15 6 16 8 17 15 18 9 19 13 20 10 21 12 22
REMARK SMILES IDX 14 23 11 24 4 25 3 26 31 27 2 28 32 29 34 30 1 31 33 32
REMARK SMILES IDX 27 33 24 36
REMARK H PARENT 27 34 27 35 24 37 24 38
ROOT
ATOM      1  C   UNL     1     -23.980  -5.459 -27.741  1.00  0.00     0.001 A 
ATOM      2  C   UNL     1     -25.052  -6.303 -28.070  1.00  0.00     0.024 A 
ATOM      3  C   UNL     1     -26.387  -5.998 -27.693  1.00  0.00     0.043 A 
ATOM      4  C   UNL     1     -26.665  -4.839 -26.971  1.00  0.00     0.078 A 
ATOM      5  N   UNL     1     -27.900  -4.515 -26.572  1.00  0.00    -0.213 NA
ATOM      6  C   UNL     1     -28.889  -5.347 -26.898  1.00  0.00     0.222 A 
ATOM      7  N   UNL     1     -28.744  -6.485 -27.577  1.00  0.00    -0.196 NA
ATOM      8  C   UNL     1     -27.505  -6.786 -27.983  1.00  0.00     0.136 A 
ATOM      9  C   UNL     1     -25.609  -3.996 -26.657  1.00  0.00     0.030 A 
ATOM     10  C   UNL     1     -24.291  -4.289 -27.035  1.00  0.00     0.012 A 
ENDROOT
BRANCH   1  11
ATOM     11  C   UNL     1     -22.588  -5.768 -28.121  1.00  0.00     0.076 A 
ATOM     12  C   UNL     1     -21.557  -5.822 -27.206  1.00  0.00     0.058 A 
ATOM     13  N   UNL     1     -22.381  -5.983 -29.435  1.00  0.00    -0.213 NA
ATOM     14  C   UNL     1     -20.305  -6.121 -27.701  1.00  0.00     0.077 A 
ATOM     15  C   UNL     1     -21.142  -6.267 -29.858  1.00  0.00     0.226 A 
ATOM     16  N   UNL     1     -20.100  -6.339 -29.016  1.00  0.00    -0.213 NA
BRANCH  14  17
ATOM     17  C   UNL     1     -19.100  -6.216 -26.851  1.00  0.00     0.006 A 
ATOM     18  C   UNL     1     -18.462  -5.080 -26.321  1.00  0.00     0.049 A 
ATOM     19  C   UNL     1     -18.549  -7.470 -26.525  1.00  0.00     0.049 A 
ATOM     20  C   UNL     1     -17.328  -5.204 -25.519  1.00  0.00     0.126 A 
ATOM     21  C   UNL     1     -17.414  -7.572 -25.722  1.00  0.00     0.126 A 
ATOM     22  C   UNL     1     -16.792  -6.444 -25.215  1.00  0.00     0.078 A 
ATOM     23  F   UNL     1     -16.748  -4.099 -25.032  1.00  0.00    -0.207 F 
ATOM     24  F   UNL     1     -16.917  -8.783 -25.437  1.00  0.00    -0.207 F 
ENDBRANCH  14  17
BRANCH  15  25
ATOM     25  N   UNL     1     -20.932  -6.532 -31.212  1.00  0.00    -0.336 N 
ATOM     26  C   UNL     1     -20.784  -5.327 -32.043  1.00  0.00     0.151 C 
ATOM     27  C   UNL     1     -19.921  -7.568 -31.472  1.00  0.00     0.151 C 
ATOM     28  C   UNL     1     -20.673  -5.721 -33.531  1.00  0.00     0.135 C 
ATOM     29  C   UNL     1     -19.846  -7.866 -32.985  1.00  0.00     0.135 C 
ATOM     30  O   UNL     1     -19.603  -6.662 -33.737  1.00  0.00    -0.372 OA
ATOM     31  C   UNL     1     -20.388  -4.503 -34.398  1.00  0.00     0.040 C 
ATOM     32  C   UNL     1     -18.715  -8.837 -33.294  1.00  0.00     0.040 C 
ENDBRANCH  15  25
ENDBRANCH   1  11
BRANCH   8  33
ATOM     33  N   UNL     1     -27.396  -7.976 -28.718  1.00  0.00    -0.383 N 
ATOM     34  H   UNL     1     -26.637  -8.507 -28.293  1.00  0.00     0.158 HD
ATOM     35  H   UNL     1     -28.264  -8.500 -28.681  1.00  0.00     0.158 HD
ENDBRANCH   8  33
BRANCH   6  36
ATOM     36  N   UNL     1     -30.158  -5.024 -26.464  1.00  0.00    -0.368 N 
ATOM     37  H   UNL     1     -30.800  -5.036 -27.244  1.00  0.00     0.159 HD
ATOM     38  H   UNL     1     -30.395  -5.585 -25.658  1.00  0.00     0.159 HD
ENDBRANCH   6  36
TORSDOF 5
ENDMDL
MODEL 17
REMARK VINA RESULT:    -8.686      2.862      5.692
REMARK INTER + INTRA:         -11.640
REMARK INTER:                 -10.701
REMARK INTRA:                  -0.939
REMARK UNBOUND:                -0.923
REMARK SMILES C[C@@H]1CN(c2nc(-c3cc(F)cc(F)c3)cc(-c3ccc4nc(N)nc(N)c4c3)n2)C[C@H](C)O1
REMARK SMILES IDX 18 1 29 2 28 3 21 4 22 5 23 6 25 7 26 8 20 9 19 10 17 11
REMARK SMILES IDX 16 12 30 13 7 14 5 15 6 16 8 17 15 18 9 19 13 20 10 21 12 22
REMARK SMILES IDX 14 23 11 24 4 25 3 26 31 27 2 28 32 29 34 30 1 31 33 32
REMARK SMILES IDX 27 33 24 36
REMARK H PARENT 27 34 27 35 24 37 24 38
ROOT
ATOM      1  C   UNL     1     -20.383  -5.611 -26.493  1.00  0.00     0.001 A 
ATOM      2  C   UNL     1     -20.141  -6.955 -26.166  1.00  0.00     0.024 A 
ATOM      3  C   UNL     1     -18.886  -7.388 -25.659  1.00  0.00     0.043 A 
ATOM      4  C   UNL     1     -17.849  -6.473 -25.480  1.00  0.00     0.078 A 
ATOM      5  N   UNL     1     -16.642  -6.830 -25.027  1.00  0.00    -0.213 NA
ATOM      6  C   UNL     1     -16.451  -8.117 -24.736  1.00  0.00     0.222 A 
ATOM      7  N   UNL     1     -17.361  -9.080 -24.874  1.00  0.00    -0.196 NA
ATOM      8  C   UNL     1     -18.569  -8.704 -25.312  1.00  0.00     0.136 A 
ATOM      9  C   UNL     1     -18.090  -5.143 -25.789  1.00  0.00     0.030 A 
ATOM     10  C   UNL     1     -19.331  -4.711 -26.280  1.00  0.00     0.012 A 
ENDROOT
BRANCH   1  11
ATOM     11  C   UNL     1     -21.679  -5.151 -27.026  1.00  0.00     0.076 A 
ATOM     12  C   UNL     1     -22.864  -5.284 -26.333  1.00  0.00     0.058 A 
ATOM     13  N   UNL     1     -21.635  -4.596 -28.254  1.00  0.00    -0.213 NA
ATOM     14  C   UNL     1     -24.001  -4.810 -26.953  1.00  0.00     0.077 A 
ATOM     15  C   UNL     1     -22.773  -4.156 -28.807  1.00  0.00     0.226 A 
ATOM     16  N   UNL     1     -23.955  -4.253 -28.180  1.00  0.00    -0.213 NA
BRANCH  14  17
ATOM     17  C   UNL     1     -25.345  -4.880 -26.342  1.00  0.00     0.006 A 
ATOM     18  C   UNL     1     -25.648  -5.763 -25.291  1.00  0.00     0.049 A 
ATOM     19  C   UNL     1     -26.381  -4.039 -26.791  1.00  0.00     0.049 A 
ATOM     20  C   UNL     1     -26.926  -5.802 -24.733  1.00  0.00     0.126 A 
ATOM     21  C   UNL     1     -27.652  -4.094 -26.221  1.00  0.00     0.126 A 
ATOM     22  C   UNL     1     -27.938  -4.975 -25.192  1.00  0.00     0.078 A 
ATOM     23  F   UNL     1     -27.177  -6.656 -23.733  1.00  0.00    -0.207 F 
ATOM     24  F   UNL     1     -28.613  -3.281 -26.677  1.00  0.00    -0.207 F 
ENDBRANCH  14  17
BRANCH  15  25
ATOM     25  N   UNL     1     -22.724  -3.542 -30.059  1.00  0.00    -0.336 N 
ATOM     26  C   UNL     1     -22.312  -4.440 -31.151  1.00  0.00     0.151 C 
ATOM     27  C   UNL     1     -23.902  -2.719 -30.373  1.00  0.00     0.151 C 
ATOM     28  C   UNL     1     -22.178  -3.646 -32.467  1.00  0.00     0.135 C 
ATOM     29  C   UNL     1     -23.700  -1.999 -31.722  1.00  0.00     0.135 C 
ATOM     30  O   UNL     1     -23.396  -2.939 -32.770  1.00  0.00    -0.372 OA
ATOM     31  C   UNL     1     -21.882  -4.574 -33.636  1.00  0.00     0.040 C 
ATOM     32  C   UNL     1     -24.958  -1.246 -32.132  1.00  0.00     0.040 C 
ENDBRANCH  15  25
ENDBRANCH   1  11
BRANCH   8  33
ATOM     33  N   UNL     1     -19.509  -9.740 -25.418  1.00  0.00    -0.383 N 
ATOM     34  H   UNL     1     -19.074 -10.464 -25.989  1.00  0.00     0.158 HD
ATOM     35  H   UNL     1     -19.747 -10.102 -24.500  1.00  0.00     0.158 HD
ENDBRANCH   8  33
BRANCH   6  36
ATOM     36  N   UNL     1     -15.198  -8.486 -24.293  1.00  0.00    -0.368 N 
ATOM     37  H   UNL     1     -15.264  -9.331 -23.742  1.00  0.00     0.159 HD
ATOM     38  H   UNL     1     -14.550  -8.487 -25.068  1.00  0.00     0.159 HD
ENDBRANCH   6  36
TORSDOF 5
ENDMDL
MODEL 18
REMARK VINA RESULT:    -8.644      2.861      7.425
REMARK INTER + INTRA:         -11.589
REMARK INTER:                 -10.644
REMARK INTRA:                  -0.945
REMARK UNBOUND:                -0.923
REMARK SMILES C[C@@H]1CN(c2nc(-c3cc(F)cc(F)c3)cc(-c3ccc4nc(N)nc(N)c4c3)n2)C[C@H](C)O1
REMARK SMILES IDX 18 1 29 2 28 3 21 4 22 5 23 6 25 7 26 8 20 9 19 10 17 11
REMARK SMILES IDX 16 12 30 13 7 14 5 15 6 16 8 17 15 18 9 19 13 20 10 21 12 22
REMARK SMILES IDX 14 23 11 24 4 25 3 26 31 27 2 28 32 29 34 30 1 31 33 32
REMARK SMILES IDX 27 33 24 36
REMARK H PARENT 27 34 27 35 24 37 24 38
ROOT
ATOM      1  C   UNL     1     -25.212  -6.201 -26.656  1.00  0.00     0.001 A 
ATOM      2  C   UNL     1     -25.493  -5.639 -25.401  1.00  0.00     0.024 A 
ATOM      3  C   UNL     1     -26.746  -5.830 -24.759  1.00  0.00     0.043 A 
ATOM      4  C   UNL     1     -27.742  -6.587 -25.376  1.00  0.00     0.078 A 
ATOM      5  N   UNL     1     -28.946  -6.781 -24.827  1.00  0.00    -0.213 NA
ATOM      6  C   UNL     1     -29.176  -6.224 -23.638  1.00  0.00     0.222 A 
ATOM      7  N   UNL     1     -28.307  -5.476 -22.958  1.00  0.00    -0.196 NA
ATOM      8  C   UNL     1     -27.101  -5.305 -23.513  1.00  0.00     0.136 A 
ATOM      9  C   UNL     1     -27.461  -7.154 -26.610  1.00  0.00     0.030 A 
ATOM     10  C   UNL     1     -26.222  -6.976 -27.241  1.00  0.00     0.012 A 
ENDROOT
BRANCH   1  11
ATOM     11  C   UNL     1     -23.917  -6.004 -27.335  1.00  0.00     0.076 A 
ATOM     12  C   UNL     1     -23.815  -5.639 -28.662  1.00  0.00     0.058 A 
ATOM     13  N   UNL     1     -22.825  -6.216 -26.574  1.00  0.00    -0.213 NA
ATOM     14  C   UNL     1     -22.541  -5.491 -29.168  1.00  0.00     0.077 A 
ATOM     15  C   UNL     1     -21.613  -6.059 -27.121  1.00  0.00     0.226 A 
ATOM     16  N   UNL     1     -21.450  -5.702 -28.403  1.00  0.00    -0.213 NA
BRANCH  14  17
ATOM     17  C   UNL     1     -22.265  -5.106 -30.567  1.00  0.00     0.006 A 
ATOM     18  C   UNL     1     -21.160  -5.605 -31.280  1.00  0.00     0.049 A 
ATOM     19  C   UNL     1     -23.122  -4.223 -31.250  1.00  0.00     0.049 A 
ATOM     20  C   UNL     1     -20.930  -5.225 -32.603  1.00  0.00     0.126 A 
ATOM     21  C   UNL     1     -22.874  -3.854 -32.572  1.00  0.00     0.126 A 
ATOM     22  C   UNL     1     -21.777  -4.348 -33.258  1.00  0.00     0.078 A 
ATOM     23  F   UNL     1     -19.868  -5.722 -33.250  1.00  0.00    -0.207 F 
ATOM     24  F   UNL     1     -23.710  -3.008 -33.187  1.00  0.00    -0.207 F 
ENDBRANCH  14  17
BRANCH  15  25
ATOM     25  N   UNL     1     -20.482  -6.238 -26.323  1.00  0.00    -0.336 N 
ATOM     26  C   UNL     1     -19.882  -7.578 -26.424  1.00  0.00     0.151 C 
ATOM     27  C   UNL     1     -19.508  -5.138 -26.405  1.00  0.00     0.151 C 
ATOM     28  C   UNL     1     -18.714  -7.711 -25.424  1.00  0.00     0.135 C 
ATOM     29  C   UNL     1     -18.356  -5.376 -25.407  1.00  0.00     0.135 C 
ATOM     30  O   UNL     1     -17.746  -6.663 -25.619  1.00  0.00    -0.372 OA
ATOM     31  C   UNL     1     -17.995  -9.041 -25.601  1.00  0.00     0.040 C 
ATOM     32  C   UNL     1     -17.270  -4.321 -25.566  1.00  0.00     0.040 C 
ENDBRANCH  15  25
ENDBRANCH   1  11
BRANCH   8  33
ATOM     33  N   UNL     1     -26.205  -4.537 -22.756  1.00  0.00    -0.383 N 
ATOM     34  H   UNL     1     -25.505  -4.187 -23.410  1.00  0.00     0.158 HD
ATOM     35  H   UNL     1     -26.687  -3.768 -22.303  1.00  0.00     0.158 HD
ENDBRANCH   8  33
BRANCH   6  36
ATOM     36  N   UNL     1     -30.427  -6.404 -23.086  1.00  0.00    -0.368 N 
ATOM     37  H   UNL     1     -30.966  -5.554 -23.172  1.00  0.00     0.159 HD
ATOM     38  H   UNL     1     -30.839  -7.254 -23.446  1.00  0.00     0.159 HD
ENDBRANCH   6  36
TORSDOF 5
ENDMDL
MODEL 19
REMARK VINA RESULT:    -8.605      4.095      8.885
REMARK INTER + INTRA:         -11.541
REMARK INTER:                 -10.593
REMARK INTRA:                  -0.948
REMARK UNBOUND:                -0.923
REMARK SMILES C[C@@H]1CN(c2nc(-c3cc(F)cc(F)c3)cc(-c3ccc4nc(N)nc(N)c4c3)n2)C[C@H](C)O1
REMARK SMILES IDX 18 1 29 2 28 3 21 4 22 5 23 6 25 7 26 8 20 9 19 10 17 11
REMARK SMILES IDX 16 12 30 13 7 14 5 15 6 16 8 17 15 18 9 19 13 20 10 21 12 22
REMARK SMILES IDX 14 23 11 24 4 25 3 26 31 27 2 28 32 29 34 30 1 31 33 32
REMARK SMILES IDX 27 33 24 36
REMARK H PARENT 27 34 27 35 24 37 24 38
ROOT
ATOM      1  C   UNL     1     -24.524  -6.097 -26.844  1.00  0.00     0.001 A 
ATOM      2  C   UNL     1     -25.517  -5.117 -27.001  1.00  0.00     0.024 A 
ATOM      3  C   UNL     1     -26.848  -5.322 -26.548  1.00  0.00     0.043 A 
ATOM      4  C   UNL     1     -27.203  -6.523 -25.934  1.00  0.00     0.078 A 
ATOM      5  N   UNL     1     -28.446  -6.776 -25.509  1.00  0.00    -0.213 NA
ATOM      6  C   UNL     1     -29.361  -5.823 -25.684  1.00  0.00     0.222 A 
ATOM      7  N   UNL     1     -29.142  -4.643 -26.262  1.00  0.00    -0.196 NA
ATOM      8  C   UNL     1     -27.890  -4.398 -26.667  1.00  0.00     0.136 A 
ATOM      9  C   UNL     1     -26.220  -7.486 -25.766  1.00  0.00     0.030 A 
ATOM     10  C   UNL     1     -24.904  -7.284 -26.203  1.00  0.00     0.012 A 
ENDROOT
BRANCH   1  11
ATOM     11  C   UNL     1     -23.140  -5.899 -27.316  1.00  0.00     0.076 A 
ATOM     12  C   UNL     1     -22.036  -6.216 -26.554  1.00  0.00     0.058 A 
ATOM     13  N   UNL     1     -23.020  -5.370 -28.551  1.00  0.00    -0.213 NA
ATOM     14  C   UNL     1     -20.802  -5.978 -27.121  1.00  0.00     0.077 A 
ATOM     15  C   UNL     1     -21.795  -5.158 -29.048  1.00  0.00     0.226 A 
ATOM     16  N   UNL     1     -20.684  -5.451 -28.356  1.00  0.00    -0.213 NA
BRANCH  14  17
ATOM     17  C   UNL     1     -19.526  -6.263 -26.433  1.00  0.00     0.006 A 
ATOM     18  C   UNL     1     -19.141  -7.568 -26.073  1.00  0.00     0.049 A 
ATOM     19  C   UNL     1     -18.630  -5.223 -26.122  1.00  0.00     0.049 A 
ATOM     20  C   UNL     1     -17.927  -7.804 -25.427  1.00  0.00     0.126 A 
ATOM     21  C   UNL     1     -17.422  -5.480 -25.476  1.00  0.00     0.126 A 
ATOM     22  C   UNL     1     -17.061  -6.769 -25.120  1.00  0.00     0.078 A 
ATOM     23  F   UNL     1     -17.595  -9.059 -25.100  1.00  0.00    -0.207 F 
ATOM     24  F   UNL     1     -16.598  -4.463 -25.193  1.00  0.00    -0.207 F 
ENDBRANCH  14  17
BRANCH  15  25
ATOM     25  N   UNL     1     -21.668  -4.651 -30.342  1.00  0.00    -0.336 N 
ATOM     26  C   UNL     1     -21.018  -5.573 -31.287  1.00  0.00     0.151 C 
ATOM     27  C   UNL     1     -22.891  -4.022 -30.864  1.00  0.00     0.151 C 
ATOM     28  C   UNL     1     -20.822  -4.880 -32.652  1.00  0.00     0.135 C 
ATOM     29  C   UNL     1     -22.615  -3.396 -32.247  1.00  0.00     0.135 C 
ATOM     30  O   UNL     1     -22.071  -4.371 -33.156  1.00  0.00    -0.372 OA
ATOM     31  C   UNL     1     -20.272  -5.855 -33.684  1.00  0.00     0.040 C 
ATOM     32  C   UNL     1     -23.896  -2.855 -32.867  1.00  0.00     0.040 C 
ENDBRANCH  15  25
ENDBRANCH   1  11
BRANCH   8  33
ATOM     33  N   UNL     1     -27.691  -3.135 -27.245  1.00  0.00    -0.383 N 
ATOM     34  H   UNL     1     -26.732  -3.127 -27.591  1.00  0.00     0.158 HD
ATOM     35  H   UNL     1     -28.347  -2.982 -28.003  1.00  0.00     0.158 HD
ENDBRANCH   8  33
BRANCH   6  36
ATOM     36  N   UNL     1     -30.647  -6.097 -25.267  1.00  0.00    -0.368 N 
ATOM     37  H   UNL     1     -31.285  -6.016 -26.046  1.00  0.00     0.159 HD
ATOM     38  H   UNL     1     -30.659  -6.962 -24.745  1.00  0.00     0.159 HD
ENDBRANCH   6  36
TORSDOF 5
ENDMDL
MODEL 20
REMARK VINA RESULT:    -8.567      2.643      7.275
REMARK INTER + INTRA:         -11.494
REMARK INTER:                 -10.568
REMARK INTRA:                  -0.926
REMARK UNBOUND:                -0.923
REMARK SMILES C[C@@H]1CN(c2nc(-c3cc(F)cc(F)c3)cc(-c3ccc4nc(N)nc(N)c4c3)n2)C[C@H](C)O1
REMARK SMILES IDX 18 1 29 2 28 3 21 4 22 5 23 6 25 7 26 8 20 9 19 10 17 11
REMARK SMILES IDX 16 12 30 13 7 14 5 15 6 16 8 17 15 18 9 19 13 20 10 21 12 22
REMARK SMILES IDX 14 23 11 24 4 25 3 26 31 27 2 28 32 29 34 30 1 31 33 32
REMARK SMILES IDX 27 33 24 36
REMARK H PARENT 27 34 27 35 24 37 24 38
ROOT
ATOM      1  C   UNL     1     -25.059  -5.301 -25.919  1.00  0.00     0.001 A 
ATOM      2  C   UNL     1     -26.348  -5.714 -26.290  1.00  0.00     0.024 A 
ATOM      3  C   UNL     1     -27.375  -5.915 -25.329  1.00  0.00     0.043 A 
ATOM      4  C   UNL     1     -27.118  -5.711 -23.974  1.00  0.00     0.078 A 
ATOM      5  N   UNL     1     -28.041  -5.907 -23.027  1.00  0.00    -0.213 NA
ATOM      6  C   UNL     1     -29.251  -6.306 -23.421  1.00  0.00     0.222 A 
ATOM      7  N   UNL     1     -29.610  -6.541 -24.682  1.00  0.00    -0.196 NA
ATOM      8  C   UNL     1     -28.680  -6.324 -25.620  1.00  0.00     0.136 A 
ATOM      9  C   UNL     1     -25.849  -5.290 -23.607  1.00  0.00     0.030 A 
ATOM     10  C   UNL     1     -24.836  -5.080 -24.553  1.00  0.00     0.012 A 
ENDROOT
BRANCH   1  11
ATOM     11  C   UNL     1     -23.982  -5.094 -26.906  1.00  0.00     0.076 A 
ATOM     12  C   UNL     1     -24.190  -4.482 -28.124  1.00  0.00     0.058 A 
ATOM     13  N   UNL     1     -22.769  -5.558 -26.544  1.00  0.00    -0.213 NA
ATOM     14  C   UNL     1     -23.093  -4.357 -28.950  1.00  0.00     0.077 A 
ATOM     15  C   UNL     1     -21.741  -5.411 -27.390  1.00  0.00     0.226 A 
ATOM     16  N   UNL     1     -21.880  -4.820 -28.586  1.00  0.00    -0.213 NA
BRANCH  14  17
ATOM     17  C   UNL     1     -23.152  -3.727 -30.285  1.00  0.00     0.006 A 
ATOM     18  C   UNL     1     -22.628  -4.348 -31.434  1.00  0.00     0.049 A 
ATOM     19  C   UNL     1     -23.758  -2.468 -30.458  1.00  0.00     0.049 A 
ATOM     20  C   UNL     1     -22.704  -3.727 -32.681  1.00  0.00     0.126 A 
ATOM     21  C   UNL     1     -23.823  -1.865 -31.713  1.00  0.00     0.126 A 
ATOM     22  C   UNL     1     -23.295  -2.485 -32.833  1.00  0.00     0.078 A 
ATOM     23  F   UNL     1     -22.194  -4.350 -33.752  1.00  0.00    -0.207 F 
ATOM     24  F   UNL     1     -24.404  -0.665 -31.837  1.00  0.00    -0.207 F 
ENDBRANCH  14  17
BRANCH  15  25
ATOM     25  N   UNL     1     -20.475  -5.852 -27.000  1.00  0.00    -0.336 N 
ATOM     26  C   UNL     1     -19.625  -4.800 -26.420  1.00  0.00     0.151 C 
ATOM     27  C   UNL     1     -20.486  -7.106 -26.231  1.00  0.00     0.151 C 
ATOM     28  C   UNL     1     -18.216  -5.358 -26.129  1.00  0.00     0.135 C 
ATOM     29  C   UNL     1     -19.040  -7.565 -25.948  1.00  0.00     0.135 C 
ATOM     30  O   UNL     1     -18.287  -6.527 -25.292  1.00  0.00    -0.372 OA
ATOM     31  C   UNL     1     -17.359  -4.327 -25.409  1.00  0.00     0.040 C 
ATOM     32  C   UNL     1     -19.024  -8.788 -25.041  1.00  0.00     0.040 C 
ENDBRANCH  15  25
ENDBRANCH   1  11
BRANCH   8  33
ATOM     33  N   UNL     1     -29.103  -6.555 -26.937  1.00  0.00    -0.383 N 
ATOM     34  H   UNL     1     -28.346  -6.235 -27.541  1.00  0.00     0.158 HD
ATOM     35  H   UNL     1     -29.287  -7.541 -27.086  1.00  0.00     0.158 HD
ENDBRANCH   8  33
BRANCH   6  36
ATOM     36  N   UNL     1     -30.194  -6.532 -22.439  1.00  0.00    -0.368 N 
ATOM     37  H   UNL     1     -30.269  -7.523 -22.258  1.00  0.00     0.159 HD
ATOM     38  H   UNL     1     -30.014  -5.927 -21.650  1.00  0.00     0.159 HD
ENDBRANCH   6  36
TORSDOF 5
ENDMDL
