REMARK SMILES Nc1ccc2cc(-c3ccc4ncnc(Nc5cc6c(cc5F)OCCO6)c4n3)ccc2n1
REMARK SMILES IDX 8 1 29 2 28 3 11 4 12 5 13 6 14 7 15 8 10 9 9 10 7 11 3 12
REMARK SMILES IDX 4 13 2 14 5 15 33 16 6 17 32 18 31 19 30 20 1 21 16 24 17 26
REMARK SMILES IDX 18 27 22 28 19 29 21 30 20 31 27 32 24 33 26 34 25 35 23 36
REMARK H PARENT 1 22 1 23 16 25
ROOT
ATOM      1  C   UNL     1       2.059  -1.511   0.818  1.00  0.00     0.071 A 
ATOM      2  N   UNL     1       0.764  -1.150   0.654  1.00  0.00    -0.242 NA
ATOM      3  C   UNL     1      -0.220  -2.009   1.050  1.00  0.00     0.132 A 
ATOM      4  C   UNL     1       0.037  -3.254   1.630  1.00  0.00     0.094 A 
ATOM      5  N   UNL     1      -0.915  -4.105   2.039  1.00  0.00    -0.235 NA
ATOM      6  C   UNL     1      -2.178  -3.704   1.863  1.00  0.00     0.225 A 
ATOM      7  N   UNL     1      -2.562  -2.546   1.322  1.00  0.00    -0.217 NA
ATOM      8  C   UNL     1      -1.582  -1.707   0.922  1.00  0.00     0.160 A 
ATOM      9  C   UNL     1       1.369  -3.600   1.780  1.00  0.00     0.033 A 
ATOM     10  C   UNL     1       2.391  -2.739   1.375  1.00  0.00     0.031 A 
ENDROOT
BRANCH   1  11
ATOM     11  C   UNL     1       3.062  -0.527   0.361  1.00  0.00     0.001 A 
ATOM     12  C   UNL     1       7.409   1.645   0.660  1.00  0.00     0.047 A 
ATOM     13  C   UNL     1       6.511   0.699   1.143  1.00  0.00     0.014 A 
ATOM     14  C   UNL     1       7.037   2.418  -0.426  1.00  0.00     0.124 A 
ATOM     15  C   UNL     1       5.262   0.555   0.530  1.00  0.00     0.001 A 
ATOM     16  N   UNL     1       5.843   2.307  -1.028  1.00  0.00    -0.231 NA
ATOM     17  C   UNL     1       4.316  -0.389   0.980  1.00  0.00     0.020 A 
ATOM     18  C   UNL     1       4.971   1.395  -0.562  1.00  0.00     0.073 A 
ATOM     19  C   UNL     1       3.731   1.264  -1.165  1.00  0.00     0.030 A 
ATOM     20  C   UNL     1       2.789   0.327  -0.718  1.00  0.00     0.012 A 
BRANCH  14  21
ATOM     21  N   UNL     1       7.899   3.390  -0.929  1.00  0.00    -0.384 N 
ATOM     22  H   UNL     1       7.437   3.800  -1.737  1.00  0.00     0.158 HD
ATOM     23  H   UNL     1       8.801   2.999  -1.170  1.00  0.00     0.158 HD
ENDBRANCH  14  21
ENDBRANCH   1  11
BRANCH   8  24
ATOM     24  N   UNL     1      -1.903  -0.471   0.297  1.00  0.00    -0.336 N 
ATOM     25  H   UNL     1      -1.128   0.186   0.401  1.00  0.00     0.168 HD
BRANCH  24  26
ATOM     26  C   UNL     1      -3.134   0.154   0.024  1.00  0.00     0.080 A 
ATOM     27  C   UNL     1      -4.354  -0.523  -0.057  1.00  0.00     0.079 A 
ATOM     28  C   UNL     1      -3.138   1.533  -0.258  1.00  0.00     0.150 A 
ATOM     29  C   UNL     1      -5.531   0.161  -0.378  1.00  0.00     0.163 A 
ATOM     30  C   UNL     1      -4.304   2.229  -0.564  1.00  0.00     0.092 A 
ATOM     31  C   UNL     1      -5.509   1.541  -0.606  1.00  0.00     0.164 A 
ATOM     32  O   UNL     1      -6.678  -0.590  -0.449  1.00  0.00    -0.486 OA
ATOM     33  O   UNL     1      -6.631   2.275  -0.891  1.00  0.00    -0.486 OA
ATOM     34  C   UNL     1      -7.731   0.122  -1.108  1.00  0.00     0.271 C 
ATOM     35  C   UNL     1      -7.824   1.545  -0.585  1.00  0.00     0.271 C 
ATOM     36  F   UNL     1      -1.979   2.211  -0.216  1.00  0.00    -0.205 F 
ENDBRANCH  24  26
ENDBRANCH   8  24
TORSDOF 4
