MODEL 1
REMARK VINA RESULT:   -10.226      0.000      0.000
REMARK INTER + INTRA:         -13.150
REMARK INTER:                 -12.318
REMARK INTRA:                  -0.832
REMARK UNBOUND:                -0.832
REMARK SMILES Nc1ccc2cc(-c3ccc4ncnc(Nc5cc6c(cc5F)OCCO6)c4n3)ccc2n1
REMARK SMILES IDX 8 1 29 2 28 3 11 4 12 5 13 6 14 7 15 8 10 9 9 10 7 11 3 12
REMARK SMILES IDX 4 13 2 14 5 15 33 16 6 17 32 18 31 19 30 20 1 21 16 24 17 26
REMARK SMILES IDX 18 27 22 28 19 29 21 30 20 31 27 32 24 33 26 34 25 35 23 36
REMARK H PARENT 1 22 1 23 16 25
ROOT
ATOM      1  C   UNL     1     -20.827  -4.492 -28.560  1.00  0.00     0.071 A 
ATOM      2  N   UNL     1     -20.654  -4.757 -29.877  1.00  0.00    -0.242 NA
ATOM      3  C   UNL     1     -21.539  -4.243 -30.779  1.00  0.00     0.132 A 
ATOM      4  C   UNL     1     -22.625  -3.441 -30.417  1.00  0.00     0.094 A 
ATOM      5  N   UNL     1     -23.497  -2.915 -31.289  1.00  0.00    -0.235 NA
ATOM      6  C   UNL     1     -23.283  -3.198 -32.578  1.00  0.00     0.225 A 
ATOM      7  N   UNL     1     -22.291  -3.949 -33.059  1.00  0.00    -0.217 NA
ATOM      8  C   UNL     1     -21.426  -4.463 -32.158  1.00  0.00     0.160 A 
ATOM      9  C   UNL     1     -22.781  -3.192 -29.064  1.00  0.00     0.033 A 
ATOM     10  C   UNL     1     -21.891  -3.714 -28.124  1.00  0.00     0.031 A 
ENDROOT
BRANCH   1  11
ATOM     11  C   UNL     1     -19.827  -5.088 -27.649  1.00  0.00     0.001 A 
ATOM     12  C   UNL     1     -17.178  -8.835 -26.024  1.00  0.00     0.047 A 
ATOM     13  C   UNL     1     -18.127  -8.340 -26.912  1.00  0.00     0.014 A 
ATOM     14  C   UNL     1     -16.622  -7.970 -25.098  1.00  0.00     0.124 A 
ATOM     15  C   UNL     1     -18.499  -6.993 -26.846  1.00  0.00     0.001 A 
ATOM     16  N   UNL     1     -16.966  -6.676 -25.007  1.00  0.00    -0.231 NA
ATOM     17  C   UNL     1     -19.456  -6.441 -27.722  1.00  0.00     0.020 A 
ATOM     18  C   UNL     1     -17.886  -6.194 -25.862  1.00  0.00     0.073 A 
ATOM     19  C   UNL     1     -18.259  -4.863 -25.785  1.00  0.00     0.030 A 
ATOM     20  C   UNL     1     -19.211  -4.313 -26.655  1.00  0.00     0.012 A 
BRANCH  14  21
ATOM     21  N   UNL     1     -15.682  -8.430 -24.178  1.00  0.00    -0.384 N 
ATOM     22  H   UNL     1     -15.195  -7.610 -23.824  1.00  0.00     0.158 HD
ATOM     23  H   UNL     1     -15.044  -9.093 -24.598  1.00  0.00     0.158 HD
ENDBRANCH  14  21
ENDBRANCH   1  11
BRANCH   8  24
ATOM     24  N   UNL     1     -20.364  -5.309 -32.581  1.00  0.00    -0.336 N 
ATOM     25  H   UNL     1     -19.503  -5.062 -32.092  1.00  0.00     0.168 HD
BRANCH  24  26
ATOM     26  C   UNL     1     -20.145  -6.018 -33.777  1.00  0.00     0.080 A 
ATOM     27  C   UNL     1     -20.410  -7.381 -33.938  1.00  0.00     0.079 A 
ATOM     28  C   UNL     1     -19.555  -5.340 -34.860  1.00  0.00     0.150 A 
ATOM     29  C   UNL     1     -20.122  -8.027 -35.145  1.00  0.00     0.163 A 
ATOM     30  C   UNL     1     -19.277  -5.967 -36.071  1.00  0.00     0.092 A 
ATOM     31  C   UNL     1     -19.580  -7.314 -36.219  1.00  0.00     0.164 A 
ATOM     32  O   UNL     1     -20.403  -9.370 -35.205  1.00  0.00    -0.486 OA
ATOM     33  O   UNL     1     -19.307  -7.879 -37.437  1.00  0.00    -0.486 OA
ATOM     34  C   UNL     1     -19.765  -9.989 -36.327  1.00  0.00     0.271 C 
ATOM     35  C   UNL     1     -19.952  -9.150 -37.579  1.00  0.00     0.271 C 
ATOM     36  F   UNL     1     -19.261  -4.035 -34.731  1.00  0.00    -0.205 F 
ENDBRANCH  24  26
ENDBRANCH   8  24
TORSDOF 4
ENDMDL
MODEL 2
REMARK VINA RESULT:    -9.892      1.125      1.633
REMARK INTER + INTRA:         -12.748
REMARK INTER:                 -11.712
REMARK INTRA:                  -1.035
REMARK UNBOUND:                -0.832
REMARK SMILES Nc1ccc2cc(-c3ccc4ncnc(Nc5cc6c(cc5F)OCCO6)c4n3)ccc2n1
REMARK SMILES IDX 8 1 29 2 28 3 11 4 12 5 13 6 14 7 15 8 10 9 9 10 7 11 3 12
REMARK SMILES IDX 4 13 2 14 5 15 33 16 6 17 32 18 31 19 30 20 1 21 16 24 17 26
REMARK SMILES IDX 18 27 22 28 19 29 21 30 20 31 27 32 24 33 26 34 25 35 23 36
REMARK H PARENT 1 22 1 23 16 25
ROOT
ATOM      1  C   UNL     1     -20.718  -4.690 -28.740  1.00  0.00     0.071 A 
ATOM      2  N   UNL     1     -20.501  -4.981 -30.045  1.00  0.00    -0.242 NA
ATOM      3  C   UNL     1     -21.362  -4.496 -30.986  1.00  0.00     0.132 A 
ATOM      4  C   UNL     1     -22.467  -3.699 -30.676  1.00  0.00     0.094 A 
ATOM      5  N   UNL     1     -23.315  -3.201 -31.586  1.00  0.00    -0.235 NA
ATOM      6  C   UNL     1     -23.058  -3.509 -32.861  1.00  0.00     0.225 A 
ATOM      7  N   UNL     1     -22.043  -4.260 -33.294  1.00  0.00    -0.217 NA
ATOM      8  C   UNL     1     -21.202  -4.746 -32.355  1.00  0.00     0.160 A 
ATOM      9  C   UNL     1     -22.669  -3.422 -29.334  1.00  0.00     0.033 A 
ATOM     10  C   UNL     1     -21.804  -3.914 -28.355  1.00  0.00     0.031 A 
ENDROOT
BRANCH   1  11
ATOM     11  C   UNL     1     -19.743  -5.255 -27.785  1.00  0.00     0.001 A 
ATOM     12  C   UNL     1     -17.062  -8.923 -26.034  1.00  0.00     0.047 A 
ATOM     13  C   UNL     1     -17.986  -8.456 -26.964  1.00  0.00     0.014 A 
ATOM     14  C   UNL     1     -16.571  -8.040 -25.088  1.00  0.00     0.124 A 
ATOM     15  C   UNL     1     -18.398  -7.121 -26.919  1.00  0.00     0.001 A 
ATOM     16  N   UNL     1     -16.954  -6.757 -25.016  1.00  0.00    -0.231 NA
ATOM     17  C   UNL     1     -19.331  -6.598 -27.837  1.00  0.00     0.020 A 
ATOM     18  C   UNL     1     -17.850  -6.303 -25.912  1.00  0.00     0.073 A 
ATOM     19  C   UNL     1     -18.263  -4.982 -25.856  1.00  0.00     0.030 A 
ATOM     20  C   UNL     1     -19.192  -4.461 -26.768  1.00  0.00     0.012 A 
BRANCH  14  21
ATOM     21  N   UNL     1     -15.659  -8.471 -24.127  1.00  0.00    -0.384 N 
ATOM     22  H   UNL     1     -16.108  -8.349 -23.223  1.00  0.00     0.158 HD
ATOM     23  H   UNL     1     -14.787  -7.961 -24.186  1.00  0.00     0.158 HD
ENDBRANCH  14  21
ENDBRANCH   1  11
BRANCH   8  24
ATOM     24  N   UNL     1     -20.119  -5.589 -32.725  1.00  0.00    -0.336 N 
ATOM     25  H   UNL     1     -19.252  -5.052 -32.759  1.00  0.00     0.168 HD
BRANCH  24  26
ATOM     26  C   UNL     1     -20.068  -6.782 -33.470  1.00  0.00     0.080 A 
ATOM     27  C   UNL     1     -20.090  -6.834 -34.866  1.00  0.00     0.079 A 
ATOM     28  C   UNL     1     -20.067  -8.007 -32.776  1.00  0.00     0.150 A 
ATOM     29  C   UNL     1     -20.081  -8.062 -35.536  1.00  0.00     0.163 A 
ATOM     30  C   UNL     1     -20.043  -9.235 -33.429  1.00  0.00     0.092 A 
ATOM     31  C   UNL     1     -20.032  -9.261 -34.817  1.00  0.00     0.164 A 
ATOM     32  O   UNL     1     -20.120  -8.014 -36.908  1.00  0.00    -0.486 OA
ATOM     33  O   UNL     1     -19.987 -10.495 -35.413  1.00  0.00    -0.486 OA
ATOM     34  C   UNL     1     -20.452  -9.289 -37.468  1.00  0.00     0.271 C 
ATOM     35  C   UNL     1     -19.649 -10.393 -36.800  1.00  0.00     0.271 C 
ATOM     36  F   UNL     1     -20.073  -7.995 -31.432  1.00  0.00    -0.205 F 
ENDBRANCH  24  26
ENDBRANCH   8  24
TORSDOF 4
ENDMDL
MODEL 3
REMARK VINA RESULT:    -9.854      0.744      0.886
REMARK INTER + INTRA:         -12.702
REMARK INTER:                 -11.882
REMARK INTRA:                  -0.821
REMARK UNBOUND:                -0.832
REMARK SMILES Nc1ccc2cc(-c3ccc4ncnc(Nc5cc6c(cc5F)OCCO6)c4n3)ccc2n1
REMARK SMILES IDX 8 1 29 2 28 3 11 4 12 5 13 6 14 7 15 8 10 9 9 10 7 11 3 12
REMARK SMILES IDX 4 13 2 14 5 15 33 16 6 17 32 18 31 19 30 20 1 21 16 24 17 26
REMARK SMILES IDX 18 27 22 28 19 29 21 30 20 31 27 32 24 33 26 34 25 35 23 36
REMARK H PARENT 1 22 1 23 16 25
ROOT
ATOM      1  C   UNL     1     -20.852  -4.566 -28.587  1.00  0.00     0.071 A 
ATOM      2  N   UNL     1     -20.658  -4.795 -29.908  1.00  0.00    -0.242 NA
ATOM      3  C   UNL     1     -21.561  -4.304 -30.807  1.00  0.00     0.132 A 
ATOM      4  C   UNL     1     -22.685  -3.561 -30.436  1.00  0.00     0.094 A 
ATOM      5  N   UNL     1     -23.574  -3.058 -31.304  1.00  0.00    -0.235 NA
ATOM      6  C   UNL     1     -23.339  -3.304 -32.597  1.00  0.00     0.225 A 
ATOM      7  N   UNL     1     -22.310  -3.998 -33.085  1.00  0.00    -0.217 NA
ATOM      8  C   UNL     1     -21.428  -4.490 -32.189  1.00  0.00     0.160 A 
ATOM      9  C   UNL     1     -22.861  -3.347 -29.080  1.00  0.00     0.033 A 
ATOM     10  C   UNL     1     -21.954  -3.847 -28.143  1.00  0.00     0.031 A 
ENDROOT
BRANCH   1  11
ATOM     11  C   UNL     1     -19.832  -5.133 -27.682  1.00  0.00     0.001 A 
ATOM     12  C   UNL     1     -17.107  -8.818 -26.036  1.00  0.00     0.047 A 
ATOM     13  C   UNL     1     -18.075  -8.349 -26.918  1.00  0.00     0.014 A 
ATOM     14  C   UNL     1     -16.551  -7.931 -25.131  1.00  0.00     0.124 A 
ATOM     15  C   UNL     1     -18.466  -7.007 -26.868  1.00  0.00     0.001 A 
ATOM     16  N   UNL     1     -16.913  -6.641 -25.054  1.00  0.00    -0.231 NA
ATOM     17  C   UNL     1     -19.442  -6.482 -27.739  1.00  0.00     0.020 A 
ATOM     18  C   UNL     1     -17.851  -6.185 -25.904  1.00  0.00     0.073 A 
ATOM     19  C   UNL     1     -18.243  -4.858 -25.842  1.00  0.00     0.030 A 
ATOM     20  C   UNL     1     -19.214  -4.335 -26.707  1.00  0.00     0.012 A 
BRANCH  14  21
ATOM     21  N   UNL     1     -15.593  -8.363 -24.217  1.00  0.00    -0.384 N 
ATOM     22  H   UNL     1     -14.886  -8.864 -24.750  1.00  0.00     0.158 HD
ATOM     23  H   UNL     1     -16.001  -8.944 -23.496  1.00  0.00     0.158 HD
ENDBRANCH  14  21
ENDBRANCH   1  11
BRANCH   8  24
ATOM     24  N   UNL     1     -20.325  -5.277 -32.621  1.00  0.00    -0.336 N 
ATOM     25  H   UNL     1     -19.459  -4.741 -32.541  1.00  0.00     0.168 HD
BRANCH  24  26
ATOM     26  C   UNL     1     -20.234  -6.358 -33.518  1.00  0.00     0.080 A 
ATOM     27  C   UNL     1     -20.081  -7.690 -33.125  1.00  0.00     0.079 A 
ATOM     28  C   UNL     1     -20.222  -6.084 -34.898  1.00  0.00     0.150 A 
ATOM     29  C   UNL     1     -19.951  -8.706 -34.077  1.00  0.00     0.163 A 
ATOM     30  C   UNL     1     -20.109  -7.087 -35.857  1.00  0.00     0.092 A 
ATOM     31  C   UNL     1     -19.992  -8.406 -35.443  1.00  0.00     0.164 A 
ATOM     32  O   UNL     1     -19.790  -9.982 -33.597  1.00  0.00    -0.486 OA
ATOM     33  O   UNL     1     -19.905  -9.358 -36.426  1.00  0.00    -0.486 OA
ATOM     34  C   UNL     1     -19.329 -10.873 -34.618  1.00  0.00     0.271 C 
ATOM     35  C   UNL     1     -20.119 -10.672 -35.900  1.00  0.00     0.271 C 
ATOM     36  F   UNL     1     -20.340  -4.811 -35.312  1.00  0.00    -0.205 F 
ENDBRANCH  24  26
ENDBRANCH   8  24
TORSDOF 4
ENDMDL
MODEL 4
REMARK VINA RESULT:    -8.605      7.070     10.260
REMARK INTER + INTRA:         -11.197
REMARK INTER:                  -9.963
REMARK INTRA:                  -1.234
REMARK UNBOUND:                -0.832
REMARK SMILES Nc1ccc2cc(-c3ccc4ncnc(Nc5cc6c(cc5F)OCCO6)c4n3)ccc2n1
REMARK SMILES IDX 8 1 29 2 28 3 11 4 12 5 13 6 14 7 15 8 10 9 9 10 7 11 3 12
REMARK SMILES IDX 4 13 2 14 5 15 33 16 6 17 32 18 31 19 30 20 1 21 16 24 17 26
REMARK SMILES IDX 18 27 22 28 19 29 21 30 20 31 27 32 24 33 26 34 25 35 23 36
REMARK H PARENT 1 22 1 23 16 25
ROOT
ATOM      1  C   UNL     1     -24.272  -5.944 -27.765  1.00  0.00     0.071 A 
ATOM      2  N   UNL     1     -25.104  -5.421 -26.833  1.00  0.00    -0.242 NA
ATOM      3  C   UNL     1     -26.439  -5.699 -26.903  1.00  0.00     0.132 A 
ATOM      4  C   UNL     1     -27.002  -6.510 -27.891  1.00  0.00     0.094 A 
ATOM      5  N   UNL     1     -28.307  -6.807 -27.968  1.00  0.00    -0.235 NA
ATOM      6  C   UNL     1     -29.089  -6.273 -27.024  1.00  0.00     0.225 A 
ATOM      7  N   UNL     1     -28.683  -5.483 -26.028  1.00  0.00    -0.217 NA
ATOM      8  C   UNL     1     -27.362  -5.203 -25.973  1.00  0.00     0.160 A 
ATOM      9  C   UNL     1     -26.130  -7.026 -28.834  1.00  0.00     0.033 A 
ATOM     10  C   UNL     1     -24.762  -6.748 -28.785  1.00  0.00     0.031 A 
ENDROOT
BRANCH   1  11
ATOM     11  C   UNL     1     -22.845  -5.592 -27.620  1.00  0.00     0.001 A 
ATOM     12  C   UNL     1     -18.957  -4.388 -24.947  1.00  0.00     0.047 A 
ATOM     13  C   UNL     1     -20.309  -4.710 -25.012  1.00  0.00     0.014 A 
ATOM     14  C   UNL     1     -18.227  -4.354 -26.122  1.00  0.00     0.124 A 
ATOM     15  C   UNL     1     -20.896  -4.986 -26.251  1.00  0.00     0.001 A 
ATOM     16  N   UNL     1     -18.766  -4.606 -27.325  1.00  0.00    -0.231 NA
ATOM     17  C   UNL     1     -22.261  -5.319 -26.371  1.00  0.00     0.020 A 
ATOM     18  C   UNL     1     -20.073  -4.916 -27.392  1.00  0.00     0.073 A 
ATOM     19  C   UNL     1     -20.652  -5.177 -28.623  1.00  0.00     0.030 A 
ATOM     20  C   UNL     1     -22.009  -5.507 -28.744  1.00  0.00     0.012 A 
BRANCH  14  21
ATOM     21  N   UNL     1     -16.876  -4.017 -26.105  1.00  0.00    -0.384 N 
ATOM     22  H   UNL     1     -16.544  -4.089 -27.063  1.00  0.00     0.158 HD
ATOM     23  H   UNL     1     -16.351  -4.616 -25.480  1.00  0.00     0.158 HD
ENDBRANCH  14  21
ENDBRANCH   1  11
BRANCH   8  24
ATOM     24  N   UNL     1     -26.852  -4.335 -24.970  1.00  0.00    -0.336 N 
ATOM     25  H   UNL     1     -26.429  -3.511 -25.402  1.00  0.00     0.168 HD
BRANCH  24  26
ATOM     26  C   UNL     1     -26.399  -4.574 -23.659  1.00  0.00     0.080 A 
ATOM     27  C   UNL     1     -27.219  -5.020 -22.618  1.00  0.00     0.079 A 
ATOM     28  C   UNL     1     -25.058  -4.281 -23.348  1.00  0.00     0.150 A 
ATOM     29  C   UNL     1     -26.706  -5.192 -21.328  1.00  0.00     0.163 A 
ATOM     30  C   UNL     1     -24.531  -4.462 -22.073  1.00  0.00     0.092 A 
ATOM     31  C   UNL     1     -25.356  -4.937 -21.063  1.00  0.00     0.164 A 
ATOM     32  O   UNL     1     -27.589  -5.618 -20.368  1.00  0.00    -0.486 OA
ATOM     33  O   UNL     1     -24.784  -5.118 -19.830  1.00  0.00    -0.486 OA
ATOM     34  C   UNL     1     -27.062  -5.431 -19.050  1.00  0.00     0.271 C 
ATOM     35  C   UNL     1     -25.621  -5.907 -18.977  1.00  0.00     0.271 C 
ATOM     36  F   UNL     1     -24.248  -3.825 -24.318  1.00  0.00    -0.205 F 
ENDBRANCH  24  26
ENDBRANCH   8  24
TORSDOF 4
ENDMDL
MODEL 5
REMARK VINA RESULT:    -8.582      4.009      7.470
REMARK INTER + INTRA:         -11.170
REMARK INTER:                 -10.341
REMARK INTRA:                  -0.829
REMARK UNBOUND:                -0.832
REMARK SMILES Nc1ccc2cc(-c3ccc4ncnc(Nc5cc6c(cc5F)OCCO6)c4n3)ccc2n1
REMARK SMILES IDX 8 1 29 2 28 3 11 4 12 5 13 6 14 7 15 8 10 9 9 10 7 11 3 12
REMARK SMILES IDX 4 13 2 14 5 15 33 16 6 17 32 18 31 19 30 20 1 21 16 24 17 26
REMARK SMILES IDX 18 27 22 28 19 29 21 30 20 31 27 32 24 33 26 34 25 35 23 36
REMARK H PARENT 1 22 1 23 16 25
ROOT
ATOM      1  C   UNL     1     -22.684  -7.124 -27.335  1.00  0.00     0.071 A 
ATOM      2  N   UNL     1     -21.645  -6.724 -28.107  1.00  0.00    -0.242 NA
ATOM      3  C   UNL     1     -20.580  -7.561 -28.272  1.00  0.00     0.132 A 
ATOM      4  C   UNL     1     -20.503  -8.829 -27.689  1.00  0.00     0.094 A 
ATOM      5  N   UNL     1     -19.473  -9.672 -27.852  1.00  0.00    -0.235 NA
ATOM      6  C   UNL     1     -18.474  -9.237 -28.626  1.00  0.00     0.225 A 
ATOM      7  N   UNL     1     -18.418  -8.052 -29.239  1.00  0.00    -0.217 NA
ATOM      8  C   UNL     1     -19.471  -7.225 -29.060  1.00  0.00     0.160 A 
ATOM      9  C   UNL     1     -21.576  -9.210 -26.902  1.00  0.00     0.033 A 
ATOM     10  C   UNL     1     -22.672  -8.365 -26.713  1.00  0.00     0.031 A 
ENDROOT
BRANCH   1  11
ATOM     11  C   UNL     1     -23.794  -6.159 -27.204  1.00  0.00     0.001 A 
ATOM     12  C   UNL     1     -28.525  -5.007 -27.244  1.00  0.00     0.047 A 
ATOM     13  C   UNL     1     -27.528  -5.968 -27.382  1.00  0.00     0.014 A 
ATOM     14  C   UNL     1     -28.155  -3.707 -26.950  1.00  0.00     0.124 A 
ATOM     15  C   UNL     1     -26.187  -5.600 -27.229  1.00  0.00     0.001 A 
ATOM     16  N   UNL     1     -26.877  -3.324 -26.805  1.00  0.00    -0.231 NA
ATOM     17  C   UNL     1     -25.139  -6.535 -27.358  1.00  0.00     0.020 A 
ATOM     18  C   UNL     1     -25.910  -4.250 -26.941  1.00  0.00     0.073 A 
ATOM     19  C   UNL     1     -24.584  -3.879 -26.799  1.00  0.00     0.030 A 
ATOM     20  C   UNL     1     -23.541  -4.807 -26.929  1.00  0.00     0.012 A 
BRANCH  14  21
ATOM     21  N   UNL     1     -29.120  -2.710 -26.822  1.00  0.00    -0.384 N 
ATOM     22  H   UNL     1     -29.461  -2.755 -25.865  1.00  0.00     0.158 HD
ATOM     23  H   UNL     1     -29.868  -2.828 -27.494  1.00  0.00     0.158 HD
ENDBRANCH  14  21
ENDBRANCH   1  11
BRANCH   8  24
ATOM     24  N   UNL     1     -19.474  -5.928 -29.642  1.00  0.00    -0.336 N 
ATOM     25  H   UNL     1     -18.842  -5.312 -29.129  1.00  0.00     0.168 HD
BRANCH  24  26
ATOM     26  C   UNL     1     -20.442  -5.236 -30.394  1.00  0.00     0.080 A 
ATOM     27  C   UNL     1     -21.165  -4.139 -29.917  1.00  0.00     0.079 A 
ATOM     28  C   UNL     1     -20.760  -5.714 -31.679  1.00  0.00     0.150 A 
ATOM     29  C   UNL     1     -22.145  -3.531 -30.709  1.00  0.00     0.163 A 
ATOM     30  C   UNL     1     -21.722  -5.110 -32.483  1.00  0.00     0.092 A 
ATOM     31  C   UNL     1     -22.405  -4.001 -32.001  1.00  0.00     0.164 A 
ATOM     32  O   UNL     1     -22.814  -2.470 -30.151  1.00  0.00    -0.486 OA
ATOM     33  O   UNL     1     -23.327  -3.429 -32.839  1.00  0.00    -0.486 OA
ATOM     34  C   UNL     1     -24.000  -2.153 -30.887  1.00  0.00     0.271 C 
ATOM     35  C   UNL     1     -23.715  -2.130 -32.379  1.00  0.00     0.271 C 
ATOM     36  F   UNL     1     -20.104  -6.784 -32.158  1.00  0.00    -0.205 F 
ENDBRANCH  24  26
ENDBRANCH   8  24
TORSDOF 4
ENDMDL
MODEL 6
REMARK VINA RESULT:    -8.572      3.476      8.155
REMARK INTER + INTRA:         -11.157
REMARK INTER:                 -10.044
REMARK INTRA:                  -1.113
REMARK UNBOUND:                -0.832
REMARK SMILES Nc1ccc2cc(-c3ccc4ncnc(Nc5cc6c(cc5F)OCCO6)c4n3)ccc2n1
REMARK SMILES IDX 8 1 29 2 28 3 11 4 12 5 13 6 14 7 15 8 10 9 9 10 7 11 3 12
REMARK SMILES IDX 4 13 2 14 5 15 33 16 6 17 32 18 31 19 30 20 1 21 16 24 17 26
REMARK SMILES IDX 18 27 22 28 19 29 21 30 20 31 27 32 24 33 26 34 25 35 23 36
REMARK H PARENT 1 22 1 23 16 25
ROOT
ATOM      1  C   UNL     1     -22.051  -4.696 -30.070  1.00  0.00     0.071 A 
ATOM      2  N   UNL     1     -21.131  -4.929 -29.104  1.00  0.00    -0.242 NA
ATOM      3  C   UNL     1     -21.457  -4.677 -27.803  1.00  0.00     0.132 A 
ATOM      4  C   UNL     1     -22.705  -4.193 -27.405  1.00  0.00     0.094 A 
ATOM      5  N   UNL     1     -23.049  -3.953 -26.131  1.00  0.00    -0.235 NA
ATOM      6  C   UNL     1     -22.112  -4.204 -25.211  1.00  0.00     0.225 A 
ATOM      7  N   UNL     1     -20.882  -4.664 -25.454  1.00  0.00    -0.217 NA
ATOM      8  C   UNL     1     -20.565  -4.899 -26.745  1.00  0.00     0.160 A 
ATOM      9  C   UNL     1     -23.624  -3.958 -28.413  1.00  0.00     0.033 A 
ATOM     10  C   UNL     1     -23.309  -4.202 -29.751  1.00  0.00     0.031 A 
ENDROOT
BRANCH   1  11
ATOM     11  C   UNL     1     -21.619  -4.991 -31.452  1.00  0.00     0.001 A 
ATOM     12  C   UNL     1     -19.303  -7.726 -34.747  1.00  0.00     0.047 A 
ATOM     13  C   UNL     1     -19.674  -7.508 -33.424  1.00  0.00     0.014 A 
ATOM     14  C   UNL     1     -19.717  -6.822 -35.709  1.00  0.00     0.124 A 
ATOM     15  C   UNL     1     -20.444  -6.387 -33.098  1.00  0.00     0.001 A 
ATOM     16  N   UNL     1     -20.449  -5.734 -35.424  1.00  0.00    -0.231 NA
ATOM     17  C   UNL     1     -20.847  -6.120 -31.773  1.00  0.00     0.020 A 
ATOM     18  C   UNL     1     -20.807  -5.518 -34.145  1.00  0.00     0.073 A 
ATOM     19  C   UNL     1     -21.561  -4.401 -33.825  1.00  0.00     0.030 A 
ATOM     20  C   UNL     1     -21.961  -4.133 -32.509  1.00  0.00     0.012 A 
BRANCH  14  21
ATOM     21  N   UNL     1     -19.352  -6.993 -37.042  1.00  0.00    -0.384 N 
ATOM     22  H   UNL     1     -19.246  -6.062 -37.438  1.00  0.00     0.158 HD
ATOM     23  H   UNL     1     -20.036  -7.541 -37.549  1.00  0.00     0.158 HD
ENDBRANCH  14  21
ENDBRANCH   1  11
BRANCH   8  24
ATOM     24  N   UNL     1     -19.263  -5.350 -27.096  1.00  0.00    -0.336 N 
ATOM     25  H   UNL     1     -18.956  -4.899 -27.959  1.00  0.00     0.168 HD
BRANCH  24  26
ATOM     26  C   UNL     1     -18.571  -6.542 -26.811  1.00  0.00     0.080 A 
ATOM     27  C   UNL     1     -17.825  -6.754 -25.648  1.00  0.00     0.079 A 
ATOM     28  C   UNL     1     -18.563  -7.561 -27.782  1.00  0.00     0.150 A 
ATOM     29  C   UNL     1     -17.126  -7.950 -25.456  1.00  0.00     0.163 A 
ATOM     30  C   UNL     1     -17.884  -8.762 -27.597  1.00  0.00     0.092 A 
ATOM     31  C   UNL     1     -17.177  -8.964 -26.419  1.00  0.00     0.164 A 
ATOM     32  O   UNL     1     -16.410  -8.063 -24.291  1.00  0.00    -0.486 OA
ATOM     33  O   UNL     1     -16.544 -10.171 -26.277  1.00  0.00    -0.486 OA
ATOM     34  C   UNL     1     -15.477  -9.148 -24.351  1.00  0.00     0.271 C 
ATOM     35  C   UNL     1     -16.139 -10.391 -24.921  1.00  0.00     0.271 C 
ATOM     36  F   UNL     1     -19.247  -7.380 -28.923  1.00  0.00    -0.205 F 
ENDBRANCH  24  26
ENDBRANCH   8  24
TORSDOF 4
ENDMDL
MODEL 7
REMARK VINA RESULT:    -8.527      4.280      6.998
REMARK INTER + INTRA:         -11.103
REMARK INTER:                  -9.898
REMARK INTRA:                  -1.205
REMARK UNBOUND:                -0.832
REMARK SMILES Nc1ccc2cc(-c3ccc4ncnc(Nc5cc6c(cc5F)OCCO6)c4n3)ccc2n1
REMARK SMILES IDX 8 1 29 2 28 3 11 4 12 5 13 6 14 7 15 8 10 9 9 10 7 11 3 12
REMARK SMILES IDX 4 13 2 14 5 15 33 16 6 17 32 18 31 19 30 20 1 21 16 24 17 26
REMARK SMILES IDX 18 27 22 28 19 29 21 30 20 31 27 32 24 33 26 34 25 35 23 36
REMARK H PARENT 1 22 1 23 16 25
ROOT
ATOM      1  C   UNL     1     -20.946  -5.529 -30.786  1.00  0.00     0.071 A 
ATOM      2  N   UNL     1     -21.753  -4.666 -30.124  1.00  0.00    -0.242 NA
ATOM      3  C   UNL     1     -22.551  -3.821 -30.840  1.00  0.00     0.132 A 
ATOM      4  C   UNL     1     -22.588  -3.801 -32.237  1.00  0.00     0.094 A 
ATOM      5  N   UNL     1     -23.376  -2.990 -32.957  1.00  0.00    -0.235 NA
ATOM      6  C   UNL     1     -24.159  -2.160 -32.261  1.00  0.00     0.225 A 
ATOM      7  N   UNL     1     -24.220  -2.074 -30.931  1.00  0.00    -0.217 NA
ATOM      8  C   UNL     1     -23.419  -2.906 -30.231  1.00  0.00     0.160 A 
ATOM      9  C   UNL     1     -21.749  -4.689 -32.887  1.00  0.00     0.033 A 
ATOM     10  C   UNL     1     -20.919  -5.557 -32.174  1.00  0.00     0.031 A 
ENDROOT
BRANCH   1  11
ATOM     11  C   UNL     1     -20.112  -6.406 -29.939  1.00  0.00     0.001 A 
ATOM     12  C   UNL     1     -17.728  -7.404 -25.813  1.00  0.00     0.047 A 
ATOM     13  C   UNL     1     -18.511  -6.529 -26.557  1.00  0.00     0.014 A 
ATOM     14  C   UNL     1     -17.373  -8.618 -26.375  1.00  0.00     0.124 A 
ATOM     15  C   UNL     1     -18.916  -6.889 -27.847  1.00  0.00     0.001 A 
ATOM     16  N   UNL     1     -17.740  -8.986 -27.612  1.00  0.00    -0.231 NA
ATOM     17  C   UNL     1     -19.711  -6.039 -28.643  1.00  0.00     0.020 A 
ATOM     18  C   UNL     1     -18.496  -8.141 -28.336  1.00  0.00     0.073 A 
ATOM     19  C   UNL     1     -18.884  -8.497 -29.617  1.00  0.00     0.030 A 
ATOM     20  C   UNL     1     -19.674  -7.653 -30.410  1.00  0.00     0.012 A 
BRANCH  14  21
ATOM     21  N   UNL     1     -16.574  -9.516 -25.671  1.00  0.00    -0.384 N 
ATOM     22  H   UNL     1     -16.259  -9.032 -24.833  1.00  0.00     0.158 HD
ATOM     23  H   UNL     1     -15.796  -9.841 -26.231  1.00  0.00     0.158 HD
ENDBRANCH  14  21
ENDBRANCH   1  11
BRANCH   8  24
ATOM     24  N   UNL     1     -23.390  -2.851 -28.810  1.00  0.00    -0.336 N 
ATOM     25  H   UNL     1     -22.557  -2.350 -28.496  1.00  0.00     0.168 HD
BRANCH  24  26
ATOM     26  C   UNL     1     -23.946  -3.687 -27.825  1.00  0.00     0.080 A 
ATOM     27  C   UNL     1     -25.317  -3.916 -27.676  1.00  0.00     0.079 A 
ATOM     28  C   UNL     1     -23.084  -4.277 -26.881  1.00  0.00     0.150 A 
ATOM     29  C   UNL     1     -25.798  -4.726 -26.642  1.00  0.00     0.163 A 
ATOM     30  C   UNL     1     -23.548  -5.097 -25.856  1.00  0.00     0.092 A 
ATOM     31  C   UNL     1     -24.911  -5.336 -25.748  1.00  0.00     0.164 A 
ATOM     32  O   UNL     1     -27.160  -4.881 -26.566  1.00  0.00    -0.486 OA
ATOM     33  O   UNL     1     -25.315  -6.167 -24.736  1.00  0.00    -0.486 OA
ATOM     34  C   UNL     1     -27.556  -5.426 -25.302  1.00  0.00     0.271 C 
ATOM     35  C   UNL     1     -26.668  -6.598 -24.922  1.00  0.00     0.271 C 
ATOM     36  F   UNL     1     -21.762  -4.056 -26.977  1.00  0.00    -0.205 F 
ENDBRANCH  24  26
ENDBRANCH   8  24
TORSDOF 4
ENDMDL
MODEL 8
REMARK VINA RESULT:    -8.526      7.335     10.487
REMARK INTER + INTRA:         -11.102
REMARK INTER:                 -10.166
REMARK INTRA:                  -0.936
REMARK UNBOUND:                -0.832
REMARK SMILES Nc1ccc2cc(-c3ccc4ncnc(Nc5cc6c(cc5F)OCCO6)c4n3)ccc2n1
REMARK SMILES IDX 8 1 29 2 28 3 11 4 12 5 13 6 14 7 15 8 10 9 9 10 7 11 3 12
REMARK SMILES IDX 4 13 2 14 5 15 33 16 6 17 32 18 31 19 30 20 1 21 16 24 17 26
REMARK SMILES IDX 18 27 22 28 19 29 21 30 20 31 27 32 24 33 26 34 25 35 23 36
REMARK H PARENT 1 22 1 23 16 25
ROOT
ATOM      1  C   UNL     1     -23.118  -5.115 -26.689  1.00  0.00     0.071 A 
ATOM      2  N   UNL     1     -24.161  -5.409 -25.876  1.00  0.00    -0.242 NA
ATOM      3  C   UNL     1     -25.372  -4.827 -26.114  1.00  0.00     0.132 A 
ATOM      4  C   UNL     1     -25.603  -3.939 -27.168  1.00  0.00     0.094 A 
ATOM      5  N   UNL     1     -26.789  -3.369 -27.426  1.00  0.00    -0.235 NA
ATOM      6  C   UNL     1     -27.790  -3.693 -26.602  1.00  0.00     0.225 A 
ATOM      7  N   UNL     1     -27.706  -4.523 -25.560  1.00  0.00    -0.217 NA
ATOM      8  C   UNL     1     -26.501  -5.085 -25.325  1.00  0.00     0.160 A 
ATOM      9  C   UNL     1     -24.518  -3.651 -27.979  1.00  0.00     0.033 A 
ATOM     10  C   UNL     1     -23.268  -4.230 -27.749  1.00  0.00     0.031 A 
ENDROOT
BRANCH   1  11
ATOM     11  C   UNL     1     -21.841  -5.783 -26.362  1.00  0.00     0.001 A 
ATOM     12  C   UNL     1     -17.119  -5.702 -25.181  1.00  0.00     0.047 A 
ATOM     13  C   UNL     1     -18.287  -5.009 -25.483  1.00  0.00     0.014 A 
ATOM     14  C   UNL     1     -17.155  -7.086 -25.164  1.00  0.00     0.124 A 
ATOM     15  C   UNL     1     -19.458  -5.719 -25.766  1.00  0.00     0.001 A 
ATOM     16  N   UNL     1     -18.263  -7.792 -25.440  1.00  0.00    -0.231 NA
ATOM     17  C   UNL     1     -20.668  -5.064 -26.077  1.00  0.00     0.020 A 
ATOM     18  C   UNL     1     -19.393  -7.125 -25.735  1.00  0.00     0.073 A 
ATOM     19  C   UNL     1     -20.548  -7.832 -26.026  1.00  0.00     0.030 A 
ATOM     20  C   UNL     1     -21.751  -7.183 -26.336  1.00  0.00     0.012 A 
BRANCH  14  21
ATOM     21  N   UNL     1     -16.004  -7.819 -24.886  1.00  0.00    -0.384 N 
ATOM     22  H   UNL     1     -16.213  -8.394 -24.074  1.00  0.00     0.158 HD
ATOM     23  H   UNL     1     -15.208  -7.215 -24.723  1.00  0.00     0.158 HD
ENDBRANCH  14  21
ENDBRANCH   1  11
BRANCH   8  24
ATOM     24  N   UNL     1     -26.314  -5.948 -24.211  1.00  0.00    -0.336 N 
ATOM     25  H   UNL     1     -26.576  -6.903 -24.459  1.00  0.00     0.168 HD
BRANCH  24  26
ATOM     26  C   UNL     1     -26.319  -5.709 -22.824  1.00  0.00     0.080 A 
ATOM     27  C   UNL     1     -25.163  -5.594 -22.046  1.00  0.00     0.079 A 
ATOM     28  C   UNL     1     -27.557  -5.653 -22.157  1.00  0.00     0.150 A 
ATOM     29  C   UNL     1     -25.249  -5.401 -20.663  1.00  0.00     0.163 A 
ATOM     30  C   UNL     1     -27.657  -5.447 -20.784  1.00  0.00     0.092 A 
ATOM     31  C   UNL     1     -26.496  -5.302 -20.037  1.00  0.00     0.164 A 
ATOM     32  O   UNL     1     -24.061  -5.314 -19.981  1.00  0.00    -0.486 OA
ATOM     33  O   UNL     1     -26.648  -5.080 -18.693  1.00  0.00    -0.486 OA
ATOM     34  C   UNL     1     -24.254  -5.465 -18.570  1.00  0.00     0.271 C 
ATOM     35  C   UNL     1     -25.428  -4.625 -18.098  1.00  0.00     0.271 C 
ATOM     36  F   UNL     1     -28.688  -5.787 -22.869  1.00  0.00    -0.205 F 
ENDBRANCH  24  26
ENDBRANCH   8  24
TORSDOF 4
ENDMDL
MODEL 9
REMARK VINA RESULT:    -8.444      2.600      6.914
REMARK INTER + INTRA:         -11.004
REMARK INTER:                  -9.870
REMARK INTRA:                  -1.134
REMARK UNBOUND:                -0.832
REMARK SMILES Nc1ccc2cc(-c3ccc4ncnc(Nc5cc6c(cc5F)OCCO6)c4n3)ccc2n1
REMARK SMILES IDX 8 1 29 2 28 3 11 4 12 5 13 6 14 7 15 8 10 9 9 10 7 11 3 12
REMARK SMILES IDX 4 13 2 14 5 15 33 16 6 17 32 18 31 19 30 20 1 21 16 24 17 26
REMARK SMILES IDX 18 27 22 28 19 29 21 30 20 31 27 32 24 33 26 34 25 35 23 36
REMARK H PARENT 1 22 1 23 16 25
ROOT
ATOM      1  C   UNL     1     -19.314  -5.417 -27.260  1.00  0.00     0.071 A 
ATOM      2  N   UNL     1     -19.060  -6.739 -27.409  1.00  0.00    -0.242 NA
ATOM      3  C   UNL     1     -18.153  -7.337 -26.582  1.00  0.00     0.132 A 
ATOM      4  C   UNL     1     -17.469  -6.656 -25.573  1.00  0.00     0.094 A 
ATOM      5  N   UNL     1     -16.587  -7.229 -24.742  1.00  0.00    -0.235 NA
ATOM      6  C   UNL     1     -16.372  -8.536 -24.922  1.00  0.00     0.225 A 
ATOM      7  N   UNL     1     -16.954  -9.304 -25.846  1.00  0.00    -0.217 NA
ATOM      8  C   UNL     1     -17.841  -8.700 -26.667  1.00  0.00     0.160 A 
ATOM      9  C   UNL     1     -17.744  -5.305 -25.447  1.00  0.00     0.033 A 
ATOM     10  C   UNL     1     -18.662  -4.671 -26.286  1.00  0.00     0.031 A 
ENDROOT
BRANCH   1  11
ATOM     11  C   UNL     1     -20.305  -4.845 -28.195  1.00  0.00     0.001 A 
ATOM     12  C   UNL     1     -22.226  -4.315 -32.637  1.00  0.00     0.047 A 
ATOM     13  C   UNL     1     -21.262  -4.887 -31.813  1.00  0.00     0.014 A 
ATOM     14  C   UNL     1     -23.163  -3.467 -32.072  1.00  0.00     0.124 A 
ATOM     15  C   UNL     1     -21.258  -4.593 -30.446  1.00  0.00     0.001 A 
ATOM     16  N   UNL     1     -23.177  -3.161 -30.766  1.00  0.00    -0.231 NA
ATOM     17  C   UNL     1     -20.305  -5.147 -29.567  1.00  0.00     0.020 A 
ATOM     18  C   UNL     1     -22.246  -3.711 -29.966  1.00  0.00     0.073 A 
ATOM     19  C   UNL     1     -22.239  -3.407 -28.615  1.00  0.00     0.030 A 
ATOM     20  C   UNL     1     -21.290  -3.956 -27.741  1.00  0.00     0.012 A 
BRANCH  14  21
ATOM     21  N   UNL     1     -24.133  -2.858 -32.864  1.00  0.00    -0.384 N 
ATOM     22  H   UNL     1     -23.651  -2.479 -33.676  1.00  0.00     0.158 HD
ATOM     23  H   UNL     1     -24.633  -2.141 -32.355  1.00  0.00     0.158 HD
ENDBRANCH  14  21
ENDBRANCH   1  11
BRANCH   8  24
ATOM     24  N   UNL     1     -18.474  -9.435 -27.706  1.00  0.00    -0.336 N 
ATOM     25  H   UNL     1     -18.703 -10.376 -27.381  1.00  0.00     0.168 HD
BRANCH  24  26
ATOM     26  C   UNL     1     -18.413  -9.326 -29.108  1.00  0.00     0.080 A 
ATOM     27  C   UNL     1     -19.449  -8.822 -29.899  1.00  0.00     0.079 A 
ATOM     28  C   UNL     1     -17.273  -9.819 -29.770  1.00  0.00     0.150 A 
ATOM     29  C   UNL     1     -19.332  -8.788 -31.293  1.00  0.00     0.163 A 
ATOM     30  C   UNL     1     -17.137  -9.777 -31.154  1.00  0.00     0.092 A 
ATOM     31  C   UNL     1     -18.166  -9.242 -31.917  1.00  0.00     0.164 A 
ATOM     32  O   UNL     1     -20.406  -8.289 -31.987  1.00  0.00    -0.486 OA
ATOM     33  O   UNL     1     -17.975  -9.204 -33.274  1.00  0.00    -0.486 OA
ATOM     34  C   UNL     1     -20.327  -8.614 -33.379  1.00  0.00     0.271 C 
ATOM     35  C   UNL     1     -18.929  -8.349 -33.912  1.00  0.00     0.271 C 
ATOM     36  F   UNL     1     -16.269 -10.336 -29.042  1.00  0.00    -0.205 F 
ENDBRANCH  24  26
ENDBRANCH   8  24
TORSDOF 4
ENDMDL
MODEL 10
REMARK VINA RESULT:    -8.416      2.951      5.918
REMARK INTER + INTRA:         -10.970
REMARK INTER:                  -9.737
REMARK INTRA:                  -1.233
REMARK UNBOUND:                -0.832
REMARK SMILES Nc1ccc2cc(-c3ccc4ncnc(Nc5cc6c(cc5F)OCCO6)c4n3)ccc2n1
REMARK SMILES IDX 8 1 29 2 28 3 11 4 12 5 13 6 14 7 15 8 10 9 9 10 7 11 3 12
REMARK SMILES IDX 4 13 2 14 5 15 33 16 6 17 32 18 31 19 30 20 1 21 16 24 17 26
REMARK SMILES IDX 18 27 22 28 19 29 21 30 20 31 27 32 24 33 26 34 25 35 23 36
REMARK H PARENT 1 22 1 23 16 25
ROOT
ATOM      1  C   UNL     1     -18.794  -9.083 -31.695  1.00  0.00     0.071 A 
ATOM      2  N   UNL     1     -19.178  -7.863 -32.139  1.00  0.00    -0.242 NA
ATOM      3  C   UNL     1     -19.590  -7.726 -33.433  1.00  0.00     0.132 A 
ATOM      4  C   UNL     1     -19.646  -8.791 -34.336  1.00  0.00     0.094 A 
ATOM      5  N   UNL     1     -20.062  -8.681 -35.606  1.00  0.00    -0.235 NA
ATOM      6  C   UNL     1     -20.437  -7.459 -35.998  1.00  0.00     0.225 A 
ATOM      7  N   UNL     1     -20.430  -6.359 -35.242  1.00  0.00    -0.217 NA
ATOM      8  C   UNL     1     -20.010  -6.501 -33.966  1.00  0.00     0.160 A 
ATOM      9  C   UNL     1     -19.243 -10.026 -33.857  1.00  0.00     0.033 A 
ATOM     10  C   UNL     1     -18.811 -10.186 -32.539  1.00  0.00     0.031 A 
ENDROOT
BRANCH   1  11
ATOM     11  C   UNL     1     -18.360  -9.145 -30.284  1.00  0.00     0.001 A 
ATOM     12  C   UNL     1     -18.099  -7.325 -25.776  1.00  0.00     0.047 A 
ATOM     13  C   UNL     1     -18.539  -7.202 -27.090  1.00  0.00     0.014 A 
ATOM     14  C   UNL     1     -17.379  -8.453 -25.421  1.00  0.00     0.124 A 
ATOM     15  C   UNL     1     -18.241  -8.208 -28.015  1.00  0.00     0.001 A 
ATOM     16  N   UNL     1     -17.073  -9.428 -26.289  1.00  0.00    -0.231 NA
ATOM     17  C   UNL     1     -18.664  -8.132 -29.359  1.00  0.00     0.020 A 
ATOM     18  C   UNL     1     -17.494  -9.312 -27.561  1.00  0.00     0.073 A 
ATOM     19  C   UNL     1     -17.187 -10.304 -28.477  1.00  0.00     0.030 A 
ATOM     20  C   UNL     1     -17.605 -10.230 -29.813  1.00  0.00     0.012 A 
BRANCH  14  21
ATOM     21  N   UNL     1     -16.904  -8.606 -24.120  1.00  0.00    -0.384 N 
ATOM     22  H   UNL     1     -16.492  -7.716 -23.853  1.00  0.00     0.158 HD
ATOM     23  H   UNL     1     -16.237  -9.364 -24.054  1.00  0.00     0.158 HD
ENDBRANCH  14  21
ENDBRANCH   1  11
BRANCH   8  24
ATOM     24  N   UNL     1     -19.931  -5.372 -33.105  1.00  0.00    -0.336 N 
ATOM     25  H   UNL     1     -18.960  -5.071 -33.010  1.00  0.00     0.168 HD
BRANCH  24  26
ATOM     26  C   UNL     1     -20.760  -4.928 -32.058  1.00  0.00     0.080 A 
ATOM     27  C   UNL     1     -20.458  -5.081 -30.702  1.00  0.00     0.079 A 
ATOM     28  C   UNL     1     -22.005  -4.358 -32.384  1.00  0.00     0.150 A 
ATOM     29  C   UNL     1     -21.354  -4.653 -29.717  1.00  0.00     0.163 A 
ATOM     30  C   UNL     1     -22.900  -3.914 -31.415  1.00  0.00     0.092 A 
ATOM     31  C   UNL     1     -22.563  -4.047 -30.075  1.00  0.00     0.164 A 
ATOM     32  O   UNL     1     -20.978  -4.859 -28.413  1.00  0.00    -0.486 OA
ATOM     33  O   UNL     1     -23.469  -3.576 -29.160  1.00  0.00    -0.486 OA
ATOM     34  C   UNL     1     -22.086  -4.710 -27.518  1.00  0.00     0.271 C 
ATOM     35  C   UNL     1     -22.884  -3.463 -27.857  1.00  0.00     0.271 C 
ATOM     36  F   UNL     1     -22.340  -4.220 -33.678  1.00  0.00    -0.205 F 
ENDBRANCH  24  26
ENDBRANCH   8  24
TORSDOF 4
ENDMDL
MODEL 11
REMARK VINA RESULT:    -8.360      3.443      7.942
REMARK INTER + INTRA:         -10.902
REMARK INTER:                  -9.871
REMARK INTRA:                  -1.031
REMARK UNBOUND:                -0.832
REMARK SMILES Nc1ccc2cc(-c3ccc4ncnc(Nc5cc6c(cc5F)OCCO6)c4n3)ccc2n1
REMARK SMILES IDX 8 1 29 2 28 3 11 4 12 5 13 6 14 7 15 8 10 9 9 10 7 11 3 12
REMARK SMILES IDX 4 13 2 14 5 15 33 16 6 17 32 18 31 19 30 20 1 21 16 24 17 26
REMARK SMILES IDX 18 27 22 28 19 29 21 30 20 31 27 32 24 33 26 34 25 35 23 36
REMARK H PARENT 1 22 1 23 16 25
ROOT
ATOM      1  C   UNL     1     -22.066  -4.713 -30.076  1.00  0.00     0.071 A 
ATOM      2  N   UNL     1     -21.142  -4.927 -29.110  1.00  0.00    -0.242 NA
ATOM      3  C   UNL     1     -21.471  -4.677 -27.809  1.00  0.00     0.132 A 
ATOM      4  C   UNL     1     -22.727  -4.213 -27.411  1.00  0.00     0.094 A 
ATOM      5  N   UNL     1     -23.075  -3.977 -26.138  1.00  0.00    -0.235 NA
ATOM      6  C   UNL     1     -22.132  -4.208 -25.219  1.00  0.00     0.225 A 
ATOM      7  N   UNL     1     -20.896  -4.647 -25.460  1.00  0.00    -0.217 NA
ATOM      8  C   UNL     1     -20.574  -4.880 -26.751  1.00  0.00     0.160 A 
ATOM      9  C   UNL     1     -23.651  -3.997 -28.420  1.00  0.00     0.033 A 
ATOM     10  C   UNL     1     -23.332  -4.240 -29.758  1.00  0.00     0.031 A 
ENDROOT
BRANCH   1  11
ATOM     11  C   UNL     1     -21.630  -5.004 -31.457  1.00  0.00     0.001 A 
ATOM     12  C   UNL     1     -19.298  -7.728 -34.751  1.00  0.00     0.047 A 
ATOM     13  C   UNL     1     -19.673  -7.513 -33.429  1.00  0.00     0.014 A 
ATOM     14  C   UNL     1     -19.712  -6.823 -35.712  1.00  0.00     0.124 A 
ATOM     15  C   UNL     1     -20.447  -6.395 -33.103  1.00  0.00     0.001 A 
ATOM     16  N   UNL     1     -20.447  -5.737 -35.427  1.00  0.00    -0.231 NA
ATOM     17  C   UNL     1     -20.854  -6.131 -31.778  1.00  0.00     0.020 A 
ATOM     18  C   UNL     1     -20.809  -5.525 -34.149  1.00  0.00     0.073 A 
ATOM     19  C   UNL     1     -21.566  -4.410 -33.829  1.00  0.00     0.030 A 
ATOM     20  C   UNL     1     -21.970  -4.146 -32.513  1.00  0.00     0.012 A 
BRANCH  14  21
ATOM     21  N   UNL     1     -19.342  -6.990 -37.045  1.00  0.00    -0.384 N 
ATOM     22  H   UNL     1     -18.358  -7.245 -37.045  1.00  0.00     0.158 HD
ATOM     23  H   UNL     1     -19.514  -6.153 -37.587  1.00  0.00     0.158 HD
ENDBRANCH  14  21
ENDBRANCH   1  11
BRANCH   8  24
ATOM     24  N   UNL     1     -19.265  -5.309 -27.101  1.00  0.00    -0.336 N 
ATOM     25  H   UNL     1     -18.964  -4.849 -27.962  1.00  0.00     0.168 HD
BRANCH  24  26
ATOM     26  C   UNL     1     -18.555  -6.492 -26.820  1.00  0.00     0.080 A 
ATOM     27  C   UNL     1     -18.667  -7.668 -27.568  1.00  0.00     0.079 A 
ATOM     28  C   UNL     1     -17.735  -6.526 -25.677  1.00  0.00     0.150 A 
ATOM     29  C   UNL     1     -17.963  -8.818 -27.199  1.00  0.00     0.163 A 
ATOM     30  C   UNL     1     -17.017  -7.660 -25.307  1.00  0.00     0.092 A 
ATOM     31  C   UNL     1     -17.119  -8.806 -26.084  1.00  0.00     0.164 A 
ATOM     32  O   UNL     1     -18.148  -9.929 -27.984  1.00  0.00    -0.486 OA
ATOM     33  O   UNL     1     -16.376  -9.888 -25.690  1.00  0.00    -0.486 OA
ATOM     34  C   UNL     1     -17.671 -11.114 -27.337  1.00  0.00     0.271 C 
ATOM     35  C   UNL     1     -16.301 -10.875 -26.725  1.00  0.00     0.271 C 
ATOM     36  F   UNL     1     -17.625  -5.422 -24.920  1.00  0.00    -0.205 F 
ENDBRANCH  24  26
ENDBRANCH   8  24
TORSDOF 4
ENDMDL
MODEL 12
REMARK VINA RESULT:    -8.290      4.291      7.304
REMARK INTER + INTRA:         -10.818
REMARK INTER:                 -10.060
REMARK INTRA:                  -0.758
REMARK UNBOUND:                -0.832
REMARK SMILES Nc1ccc2cc(-c3ccc4ncnc(Nc5cc6c(cc5F)OCCO6)c4n3)ccc2n1
REMARK SMILES IDX 8 1 29 2 28 3 11 4 12 5 13 6 14 7 15 8 10 9 9 10 7 11 3 12
REMARK SMILES IDX 4 13 2 14 5 15 33 16 6 17 32 18 31 19 30 20 1 21 16 24 17 26
REMARK SMILES IDX 18 27 22 28 19 29 21 30 20 31 27 32 24 33 26 34 25 35 23 36
REMARK H PARENT 1 22 1 23 16 25
ROOT
ATOM      1  C   UNL     1     -19.346  -7.766 -33.173  1.00  0.00     0.071 A 
ATOM      2  N   UNL     1     -19.991  -7.240 -32.104  1.00  0.00    -0.242 NA
ATOM      3  C   UNL     1     -20.769  -6.132 -32.277  1.00  0.00     0.132 A 
ATOM      4  C   UNL     1     -20.946  -5.505 -33.514  1.00  0.00     0.094 A 
ATOM      5  N   UNL     1     -21.717  -4.425 -33.707  1.00  0.00    -0.235 NA
ATOM      6  C   UNL     1     -22.338  -3.945 -32.625  1.00  0.00     0.225 A 
ATOM      7  N   UNL     1     -22.255  -4.443 -31.390  1.00  0.00    -0.217 NA
ATOM      8  C   UNL     1     -21.474  -5.533 -31.225  1.00  0.00     0.160 A 
ATOM      9  C   UNL     1     -20.270  -6.059 -34.587  1.00  0.00     0.033 A 
ATOM     10  C   UNL     1     -19.464  -7.189 -34.431  1.00  0.00     0.031 A 
ENDROOT
BRANCH   1  11
ATOM     11  C   UNL     1     -18.523  -8.962 -32.901  1.00  0.00     0.001 A 
ATOM     12  C   UNL     1     -14.973 -11.294 -30.521  1.00  0.00     0.047 A 
ATOM     13  C   UNL     1     -15.709 -10.132 -30.728  1.00  0.00     0.014 A 
ATOM     14  C   UNL     1     -15.278 -12.415 -31.274  1.00  0.00     0.124 A 
ATOM     15  C   UNL     1     -16.727 -10.120 -31.687  1.00  0.00     0.001 A 
ATOM     16  N   UNL     1     -16.244 -12.429 -32.206  1.00  0.00    -0.231 NA
ATOM     17  C   UNL     1     -17.503  -8.968 -31.934  1.00  0.00     0.020 A 
ATOM     18  C   UNL     1     -16.956 -11.306 -32.410  1.00  0.00     0.073 A 
ATOM     19  C   UNL     1     -17.956 -11.295 -33.369  1.00  0.00     0.030 A 
ATOM     20  C   UNL     1     -18.726 -10.151 -33.617  1.00  0.00     0.012 A 
BRANCH  14  21
ATOM     21  N   UNL     1     -14.553 -13.593 -31.112  1.00  0.00    -0.384 N 
ATOM     22  H   UNL     1     -14.997 -14.107 -30.355  1.00  0.00     0.158 HD
ATOM     23  H   UNL     1     -13.578 -13.407 -30.919  1.00  0.00     0.158 HD
ENDBRANCH  14  21
ENDBRANCH   1  11
BRANCH   8  24
ATOM     24  N   UNL     1     -21.296  -6.103 -29.935  1.00  0.00    -0.336 N 
ATOM     25  H   UNL     1     -22.159  -6.555 -29.630  1.00  0.00     0.168 HD
BRANCH  24  26
ATOM     26  C   UNL     1     -20.427  -5.780 -28.876  1.00  0.00     0.080 A 
ATOM     27  C   UNL     1     -19.565  -6.695 -28.265  1.00  0.00     0.079 A 
ATOM     28  C   UNL     1     -20.474  -4.479 -28.342  1.00  0.00     0.150 A 
ATOM     29  C   UNL     1     -18.763  -6.311 -27.186  1.00  0.00     0.163 A 
ATOM     30  C   UNL     1     -19.671  -4.078 -27.278  1.00  0.00     0.092 A 
ATOM     31  C   UNL     1     -18.798  -4.996 -26.710  1.00  0.00     0.164 A 
ATOM     32  O   UNL     1     -17.959  -7.282 -26.641  1.00  0.00    -0.486 OA
ATOM     33  O   UNL     1     -18.014  -4.548 -25.679  1.00  0.00    -0.486 OA
ATOM     34  C   UNL     1     -17.456  -6.889 -25.360  1.00  0.00     0.271 C 
ATOM     35  C   UNL     1     -16.945  -5.459 -25.401  1.00  0.00     0.271 C 
ATOM     36  F   UNL     1     -21.311  -3.580 -28.887  1.00  0.00    -0.205 F 
ENDBRANCH  24  26
ENDBRANCH   8  24
TORSDOF 4
ENDMDL
MODEL 13
REMARK VINA RESULT:    -8.279      2.437      6.280
REMARK INTER + INTRA:         -10.805
REMARK INTER:                  -9.545
REMARK INTRA:                  -1.261
REMARK UNBOUND:                -0.832
REMARK SMILES Nc1ccc2cc(-c3ccc4ncnc(Nc5cc6c(cc5F)OCCO6)c4n3)ccc2n1
REMARK SMILES IDX 8 1 29 2 28 3 11 4 12 5 13 6 14 7 15 8 10 9 9 10 7 11 3 12
REMARK SMILES IDX 4 13 2 14 5 15 33 16 6 17 32 18 31 19 30 20 1 21 16 24 17 26
REMARK SMILES IDX 18 27 22 28 19 29 21 30 20 31 27 32 24 33 26 34 25 35 23 36
REMARK H PARENT 1 22 1 23 16 25
ROOT
ATOM      1  C   UNL     1     -19.774  -6.807 -29.023  1.00  0.00     0.071 A 
ATOM      2  N   UNL     1     -19.127  -7.428 -30.038  1.00  0.00    -0.242 NA
ATOM      3  C   UNL     1     -18.303  -8.479 -29.756  1.00  0.00     0.132 A 
ATOM      4  C   UNL     1     -18.093  -8.962 -28.462  1.00  0.00     0.094 A 
ATOM      5  N   UNL     1     -17.300 -10.002 -28.166  1.00  0.00    -0.235 NA
ATOM      6  C   UNL     1     -16.686 -10.587 -29.199  1.00  0.00     0.225 A 
ATOM      7  N   UNL     1     -16.797 -10.226 -30.480  1.00  0.00    -0.217 NA
ATOM      8  C   UNL     1     -17.605  -9.178 -30.749  1.00  0.00     0.160 A 
ATOM      9  C   UNL     1     -18.762  -8.305 -27.443  1.00  0.00     0.033 A 
ATOM     10  C   UNL     1     -19.604  -7.223 -27.709  1.00  0.00     0.031 A 
ENDROOT
BRANCH   1  11
ATOM     11  C   UNL     1     -20.644  -5.678 -29.412  1.00  0.00     0.001 A 
ATOM     12  C   UNL     1     -23.369  -3.256 -32.639  1.00  0.00     0.047 A 
ATOM     13  C   UNL     1     -22.556  -4.345 -32.341  1.00  0.00     0.014 A 
ATOM     14  C   UNL     1     -23.623  -2.327 -31.645  1.00  0.00     0.124 A 
ATOM     15  C   UNL     1     -22.015  -4.472 -31.057  1.00  0.00     0.001 A 
ATOM     16  N   UNL     1     -23.111  -2.420 -30.409  1.00  0.00    -0.231 NA
ATOM     17  C   UNL     1     -21.186  -5.557 -30.703  1.00  0.00     0.020 A 
ATOM     18  C   UNL     1     -22.323  -3.470 -30.117  1.00  0.00     0.073 A 
ATOM     19  C   UNL     1     -21.780  -3.586 -28.848  1.00  0.00     0.030 A 
ATOM     20  C   UNL     1     -20.954  -4.663 -28.495  1.00  0.00     0.012 A 
BRANCH  14  21
ATOM     21  N   UNL     1     -24.417  -1.212 -31.908  1.00  0.00    -0.384 N 
ATOM     22  H   UNL     1     -25.110  -1.166 -31.165  1.00  0.00     0.158 HD
ATOM     23  H   UNL     1     -24.848  -1.269 -32.822  1.00  0.00     0.158 HD
ENDBRANCH  14  21
ENDBRANCH   1  11
BRANCH   8  24
ATOM     24  N   UNL     1     -17.746  -8.701 -32.081  1.00  0.00    -0.336 N 
ATOM     25  H   UNL     1     -17.419  -7.736 -32.144  1.00  0.00     0.168 HD
BRANCH  24  26
ATOM     26  C   UNL     1     -18.618  -9.067 -33.124  1.00  0.00     0.080 A 
ATOM     27  C   UNL     1     -18.720 -10.362 -33.639  1.00  0.00     0.079 A 
ATOM     28  C   UNL     1     -19.384  -8.060 -33.741  1.00  0.00     0.150 A 
ATOM     29  C   UNL     1     -19.578 -10.639 -34.709  1.00  0.00     0.163 A 
ATOM     30  C   UNL     1     -20.253  -8.325 -34.796  1.00  0.00     0.092 A 
ATOM     31  C   UNL     1     -20.362  -9.625 -35.269  1.00  0.00     0.164 A 
ATOM     32  O   UNL     1     -19.601 -11.936 -35.158  1.00  0.00    -0.486 OA
ATOM     33  O   UNL     1     -21.246  -9.838 -36.295  1.00  0.00    -0.486 OA
ATOM     34  C   UNL     1     -20.228 -12.036 -36.441  1.00  0.00     0.271 C 
ATOM     35  C   UNL     1     -21.516 -11.233 -36.472  1.00  0.00     0.271 C 
ATOM     36  F   UNL     1     -19.290  -6.799 -33.289  1.00  0.00    -0.205 F 
ENDBRANCH  24  26
ENDBRANCH   8  24
TORSDOF 4
ENDMDL
MODEL 14
REMARK VINA RESULT:    -8.252      3.410      8.151
REMARK INTER + INTRA:         -10.772
REMARK INTER:                  -9.707
REMARK INTRA:                  -1.064
REMARK UNBOUND:                -0.832
REMARK SMILES Nc1ccc2cc(-c3ccc4ncnc(Nc5cc6c(cc5F)OCCO6)c4n3)ccc2n1
REMARK SMILES IDX 8 1 29 2 28 3 11 4 12 5 13 6 14 7 15 8 10 9 9 10 7 11 3 12
REMARK SMILES IDX 4 13 2 14 5 15 33 16 6 17 32 18 31 19 30 20 1 21 16 24 17 26
REMARK SMILES IDX 18 27 22 28 19 29 21 30 20 31 27 32 24 33 26 34 25 35 23 36
REMARK H PARENT 1 22 1 23 16 25
ROOT
ATOM      1  C   UNL     1     -19.216  -8.675 -30.320  1.00  0.00     0.071 A 
ATOM      2  N   UNL     1     -20.081  -7.961 -29.562  1.00  0.00    -0.242 NA
ATOM      3  C   UNL     1     -19.745  -7.662 -28.273  1.00  0.00     0.132 A 
ATOM      4  C   UNL     1     -18.538  -8.051 -27.686  1.00  0.00     0.094 A 
ATOM      5  N   UNL     1     -18.183  -7.755 -26.427  1.00  0.00    -0.235 NA
ATOM      6  C   UNL     1     -19.066  -7.043 -25.719  1.00  0.00     0.225 A 
ATOM      7  N   UNL     1     -20.251  -6.611 -26.155  1.00  0.00    -0.217 NA
ATOM      8  C   UNL     1     -20.581  -6.921 -27.428  1.00  0.00     0.160 A 
ATOM      9  C   UNL     1     -17.675  -8.786 -28.481  1.00  0.00     0.033 A 
ATOM     10  C   UNL     1     -18.003  -9.108 -29.800  1.00  0.00     0.031 A 
ENDROOT
BRANCH   1  11
ATOM     11  C   UNL     1     -19.656  -8.959 -31.701  1.00  0.00     0.001 A 
ATOM     12  C   UNL     1     -20.135  -7.766 -36.397  1.00  0.00     0.047 A 
ATOM     13  C   UNL     1     -19.697  -7.434 -35.120  1.00  0.00     0.014 A 
ATOM     14  C   UNL     1     -20.746  -8.993 -36.591  1.00  0.00     0.124 A 
ATOM     15  C   UNL     1     -19.886  -8.336 -34.068  1.00  0.00     0.001 A 
ATOM     16  N   UNL     1     -20.948  -9.874 -35.599  1.00  0.00    -0.231 NA
ATOM     17  C   UNL     1     -19.461  -8.049 -32.754  1.00  0.00     0.020 A 
ATOM     18  C   UNL     1     -20.528  -9.555 -34.361  1.00  0.00     0.073 A 
ATOM     19  C   UNL     1     -20.728 -10.447 -33.321  1.00  0.00     0.030 A 
ATOM     20  C   UNL     1     -20.306 -10.162 -32.014  1.00  0.00     0.012 A 
BRANCH  14  21
ATOM     21  N   UNL     1     -21.216  -9.357 -37.851  1.00  0.00    -0.384 N 
ATOM     22  H   UNL     1     -20.595 -10.084 -38.195  1.00  0.00     0.158 HD
ATOM     23  H   UNL     1     -21.251  -8.563 -38.478  1.00  0.00     0.158 HD
ENDBRANCH  14  21
ENDBRANCH   1  11
BRANCH   8  24
ATOM     24  N   UNL     1     -21.842  -6.537 -27.958  1.00  0.00    -0.336 N 
ATOM     25  H   UNL     1     -22.428  -7.361 -28.102  1.00  0.00     0.168 HD
BRANCH  24  26
ATOM     26  C   UNL     1     -22.243  -5.425 -28.723  1.00  0.00     0.080 A 
ATOM     27  C   UNL     1     -22.536  -5.480 -30.088  1.00  0.00     0.079 A 
ATOM     28  C   UNL     1     -22.283  -4.163 -28.101  1.00  0.00     0.150 A 
ATOM     29  C   UNL     1     -22.884  -4.322 -30.792  1.00  0.00     0.163 A 
ATOM     30  C   UNL     1     -22.642  -3.005 -28.786  1.00  0.00     0.092 A 
ATOM     31  C   UNL     1     -22.961  -3.089 -30.134  1.00  0.00     0.164 A 
ATOM     32  O   UNL     1     -23.140  -4.471 -32.132  1.00  0.00    -0.486 OA
ATOM     33  O   UNL     1     -23.328  -1.925 -30.757  1.00  0.00    -0.486 OA
ATOM     34  C   UNL     1     -23.143  -3.209 -32.809  1.00  0.00     0.271 C 
ATOM     35  C   UNL     1     -23.942  -2.182 -32.025  1.00  0.00     0.271 C 
ATOM     36  F   UNL     1     -21.980  -4.068 -26.796  1.00  0.00    -0.205 F 
ENDBRANCH  24  26
ENDBRANCH   8  24
TORSDOF 4
ENDMDL
MODEL 15
REMARK VINA RESULT:    -8.251      5.832      8.628
REMARK INTER + INTRA:         -10.772
REMARK INTER:                  -9.919
REMARK INTRA:                  -0.853
REMARK UNBOUND:                -0.832
REMARK SMILES Nc1ccc2cc(-c3ccc4ncnc(Nc5cc6c(cc5F)OCCO6)c4n3)ccc2n1
REMARK SMILES IDX 8 1 29 2 28 3 11 4 12 5 13 6 14 7 15 8 10 9 9 10 7 11 3 12
REMARK SMILES IDX 4 13 2 14 5 15 33 16 6 17 32 18 31 19 30 20 1 21 16 24 17 26
REMARK SMILES IDX 18 27 22 28 19 29 21 30 20 31 27 32 24 33 26 34 25 35 23 36
REMARK H PARENT 1 22 1 23 16 25
ROOT
ATOM      1  C   UNL     1     -24.302  -4.310 -26.270  1.00  0.00     0.071 A 
ATOM      2  N   UNL     1     -22.957  -4.464 -26.218  1.00  0.00    -0.242 NA
ATOM      3  C   UNL     1     -22.233  -4.364 -27.370  1.00  0.00     0.132 A 
ATOM      4  C   UNL     1     -22.807  -4.100 -28.616  1.00  0.00     0.094 A 
ATOM      5  N   UNL     1     -22.111  -3.982 -29.757  1.00  0.00    -0.235 NA
ATOM      6  C   UNL     1     -20.787  -4.137 -29.656  1.00  0.00     0.225 A 
ATOM      7  N   UNL     1     -20.113  -4.394 -28.534  1.00  0.00    -0.217 NA
ATOM      8  C   UNL     1     -20.839  -4.503 -27.400  1.00  0.00     0.160 A 
ATOM      9  C   UNL     1     -24.183  -3.952 -28.641  1.00  0.00     0.033 A 
ATOM     10  C   UNL     1     -24.944  -4.058 -27.475  1.00  0.00     0.031 A 
ENDROOT
BRANCH   1  11
ATOM     11  C   UNL     1     -25.012  -4.436 -24.980  1.00  0.00     0.001 A 
ATOM     12  C   UNL     1     -27.758  -6.897 -21.801  1.00  0.00     0.047 A 
ATOM     13  C   UNL     1     -27.113  -6.845 -23.033  1.00  0.00     0.014 A 
ATOM     14  C   UNL     1     -27.666  -5.804 -20.958  1.00  0.00     0.124 A 
ATOM     15  C   UNL     1     -26.398  -5.697 -23.390  1.00  0.00     0.001 A 
ATOM     16  N   UNL     1     -26.994  -4.688 -21.279  1.00  0.00    -0.231 NA
ATOM     17  C   UNL     1     -25.727  -5.593 -24.626  1.00  0.00     0.020 A 
ATOM     18  C   UNL     1     -26.372  -4.632 -22.470  1.00  0.00     0.073 A 
ATOM     19  C   UNL     1     -25.675  -3.489 -22.824  1.00  0.00     0.030 A 
ATOM     20  C   UNL     1     -25.008  -3.383 -24.053  1.00  0.00     0.012 A 
BRANCH  14  21
ATOM     21  N   UNL     1     -28.312  -5.808 -19.724  1.00  0.00    -0.384 N 
ATOM     22  H   UNL     1     -28.091  -4.923 -19.275  1.00  0.00     0.158 HD
ATOM     23  H   UNL     1     -28.029  -6.598 -19.158  1.00  0.00     0.158 HD
ENDBRANCH  14  21
ENDBRANCH   1  11
BRANCH   8  24
ATOM     24  N   UNL     1     -20.205  -4.818 -26.167  1.00  0.00    -0.336 N 
ATOM     25  H   UNL     1     -20.234  -4.010 -25.542  1.00  0.00     0.168 HD
BRANCH  24  26
ATOM     26  C   UNL     1     -19.203  -5.748 -25.834  1.00  0.00     0.080 A 
ATOM     27  C   UNL     1     -19.400  -7.132 -25.801  1.00  0.00     0.079 A 
ATOM     28  C   UNL     1     -17.943  -5.263 -25.438  1.00  0.00     0.150 A 
ATOM     29  C   UNL     1     -18.366  -7.992 -25.416  1.00  0.00     0.163 A 
ATOM     30  C   UNL     1     -16.901  -6.108 -25.066  1.00  0.00     0.092 A 
ATOM     31  C   UNL     1     -17.110  -7.481 -25.073  1.00  0.00     0.164 A 
ATOM     32  O   UNL     1     -18.657  -9.333 -25.399  1.00  0.00    -0.486 OA
ATOM     33  O   UNL     1     -16.047  -8.270 -24.720  1.00  0.00    -0.486 OA
ATOM     34  C   UNL     1     -17.670 -10.075 -24.676  1.00  0.00     0.271 C 
ATOM     35  C   UNL     1     -16.271  -9.638 -25.077  1.00  0.00     0.271 C 
ATOM     36  F   UNL     1     -17.726  -3.937 -25.431  1.00  0.00    -0.205 F 
ENDBRANCH  24  26
ENDBRANCH   8  24
TORSDOF 4
ENDMDL
MODEL 16
REMARK VINA RESULT:    -8.225      3.271      7.271
REMARK INTER + INTRA:         -10.740
REMARK INTER:                  -9.581
REMARK INTRA:                  -1.158
REMARK UNBOUND:                -0.832
REMARK SMILES Nc1ccc2cc(-c3ccc4ncnc(Nc5cc6c(cc5F)OCCO6)c4n3)ccc2n1
REMARK SMILES IDX 8 1 29 2 28 3 11 4 12 5 13 6 14 7 15 8 10 9 9 10 7 11 3 12
REMARK SMILES IDX 4 13 2 14 5 15 33 16 6 17 32 18 31 19 30 20 1 21 16 24 17 26
REMARK SMILES IDX 18 27 22 28 19 29 21 30 20 31 27 32 24 33 26 34 25 35 23 36
REMARK H PARENT 1 22 1 23 16 25
ROOT
ATOM      1  C   UNL     1     -19.325  -5.404 -27.265  1.00  0.00     0.071 A 
ATOM      2  N   UNL     1     -19.052  -6.717 -27.453  1.00  0.00    -0.242 NA
ATOM      3  C   UNL     1     -18.151  -7.332 -26.632  1.00  0.00     0.132 A 
ATOM      4  C   UNL     1     -17.492  -6.676 -25.590  1.00  0.00     0.094 A 
ATOM      5  N   UNL     1     -16.615  -7.265 -24.764  1.00  0.00    -0.235 NA
ATOM      6  C   UNL     1     -16.381  -8.563 -24.983  1.00  0.00     0.225 A 
ATOM      7  N   UNL     1     -16.939  -9.307 -25.941  1.00  0.00    -0.217 NA
ATOM      8  C   UNL     1     -17.820  -8.688 -26.756  1.00  0.00     0.160 A 
ATOM      9  C   UNL     1     -17.785  -5.333 -25.424  1.00  0.00     0.033 A 
ATOM     10  C   UNL     1     -18.698  -4.683 -26.257  1.00  0.00     0.031 A 
ENDROOT
BRANCH   1  11
ATOM     11  C   UNL     1     -20.308  -4.814 -28.197  1.00  0.00     0.001 A 
ATOM     12  C   UNL     1     -22.232  -4.245 -32.633  1.00  0.00     0.047 A 
ATOM     13  C   UNL     1     -21.276  -4.835 -31.813  1.00  0.00     0.014 A 
ATOM     14  C   UNL     1     -23.152  -3.382 -32.064  1.00  0.00     0.124 A 
ATOM     15  C   UNL     1     -21.263  -4.542 -30.445  1.00  0.00     0.001 A 
ATOM     16  N   UNL     1     -23.158  -3.077 -30.758  1.00  0.00    -0.231 NA
ATOM     17  C   UNL     1     -20.317  -5.114 -29.570  1.00  0.00     0.020 A 
ATOM     18  C   UNL     1     -22.234  -3.644 -29.961  1.00  0.00     0.073 A 
ATOM     19  C   UNL     1     -22.218  -3.342 -28.610  1.00  0.00     0.030 A 
ATOM     20  C   UNL     1     -21.277  -3.908 -27.739  1.00  0.00     0.012 A 
BRANCH  14  21
ATOM     21  N   UNL     1     -24.113  -2.755 -32.854  1.00  0.00    -0.384 N 
ATOM     22  H   UNL     1     -24.972  -2.735 -32.308  1.00  0.00     0.158 HD
ATOM     23  H   UNL     1     -24.240  -3.233 -33.737  1.00  0.00     0.158 HD
ENDBRANCH  14  21
ENDBRANCH   1  11
BRANCH   8  24
ATOM     24  N   UNL     1     -18.428  -9.395 -27.829  1.00  0.00    -0.336 N 
ATOM     25  H   UNL     1     -19.264  -9.881 -27.499  1.00  0.00     0.168 HD
BRANCH  24  26
ATOM     26  C   UNL     1     -17.905  -9.928 -29.021  1.00  0.00     0.080 A 
ATOM     27  C   UNL     1     -17.103 -11.071 -29.082  1.00  0.00     0.079 A 
ATOM     28  C   UNL     1     -18.136  -9.235 -30.224  1.00  0.00     0.150 A 
ATOM     29  C   UNL     1     -16.581 -11.515 -30.301  1.00  0.00     0.163 A 
ATOM     30  C   UNL     1     -17.636  -9.673 -31.447  1.00  0.00     0.092 A 
ATOM     31  C   UNL     1     -16.870 -10.830 -31.486  1.00  0.00     0.164 A 
ATOM     32  O   UNL     1     -15.793 -12.638 -30.260  1.00  0.00    -0.486 OA
ATOM     33  O   UNL     1     -16.418 -11.231 -32.717  1.00  0.00    -0.486 OA
ATOM     34  C   UNL     1     -15.046 -12.799 -31.471  1.00  0.00     0.271 C 
ATOM     35  C   UNL     1     -15.936 -12.579 -32.682  1.00  0.00     0.271 C 
ATOM     36  F   UNL     1     -18.881  -8.117 -30.200  1.00  0.00    -0.205 F 
ENDBRANCH  24  26
ENDBRANCH   8  24
TORSDOF 4
ENDMDL
MODEL 17
REMARK VINA RESULT:    -8.188      3.910      6.502
REMARK INTER + INTRA:         -10.695
REMARK INTER:                  -9.708
REMARK INTRA:                  -0.987
REMARK UNBOUND:                -0.832
REMARK SMILES Nc1ccc2cc(-c3ccc4ncnc(Nc5cc6c(cc5F)OCCO6)c4n3)ccc2n1
REMARK SMILES IDX 8 1 29 2 28 3 11 4 12 5 13 6 14 7 15 8 10 9 9 10 7 11 3 12
REMARK SMILES IDX 4 13 2 14 5 15 33 16 6 17 32 18 31 19 30 20 1 21 16 24 17 26
REMARK SMILES IDX 18 27 22 28 19 29 21 30 20 31 27 32 24 33 26 34 25 35 23 36
REMARK H PARENT 1 22 1 23 16 25
ROOT
ATOM      1  C   UNL     1     -20.847  -6.087 -31.448  1.00  0.00     0.071 A 
ATOM      2  N   UNL     1     -21.605  -5.357 -30.596  1.00  0.00    -0.242 NA
ATOM      3  C   UNL     1     -22.335  -4.312 -31.085  1.00  0.00     0.132 A 
ATOM      4  C   UNL     1     -22.350  -3.953 -32.435  1.00  0.00     0.094 A 
ATOM      5  N   UNL     1     -23.071  -2.940 -32.937  1.00  0.00    -0.235 NA
ATOM      6  C   UNL     1     -23.808  -2.251 -32.060  1.00  0.00     0.225 A 
ATOM      7  N   UNL     1     -23.883  -2.485 -30.748  1.00  0.00    -0.217 NA
ATOM      8  C   UNL     1     -23.149  -3.514 -30.271  1.00  0.00     0.160 A 
ATOM      9  C   UNL     1     -21.561  -4.712 -33.282  1.00  0.00     0.033 A 
ATOM     10  C   UNL     1     -20.802  -5.780 -32.802  1.00  0.00     0.031 A 
ENDROOT
BRANCH   1  11
ATOM     11  C   UNL     1     -20.086  -7.198 -30.839  1.00  0.00     0.001 A 
ATOM     12  C   UNL     1     -17.500  -9.165 -27.214  1.00  0.00     0.047 A 
ATOM     13  C   UNL     1     -18.202  -8.080 -27.728  1.00  0.00     0.014 A 
ATOM     14  C   UNL     1     -17.403 -10.314 -27.979  1.00  0.00     0.124 A 
ATOM     15  C   UNL     1     -18.784  -8.171 -28.997  1.00  0.00     0.001 A 
ATOM     16  N   UNL     1     -17.944 -10.426 -29.202  1.00  0.00    -0.231 NA
ATOM     17  C   UNL     1     -19.506  -7.100 -29.563  1.00  0.00     0.020 A 
ATOM     18  C   UNL     1     -18.621  -9.378 -29.703  1.00  0.00     0.073 A 
ATOM     19  C   UNL     1     -19.186  -9.469 -30.965  1.00  0.00     0.030 A 
ATOM     20  C   UNL     1     -19.903  -8.405 -31.530  1.00  0.00     0.012 A 
BRANCH  14  21
ATOM     21  N   UNL     1     -16.693 -11.417 -27.510  1.00  0.00    -0.384 N 
ATOM     22  H   UNL     1     -15.785 -11.073 -27.209  1.00  0.00     0.158 HD
ATOM     23  H   UNL     1     -16.607 -12.134 -28.220  1.00  0.00     0.158 HD
ENDBRANCH  14  21
ENDBRANCH   1  11
BRANCH   8  24
ATOM     24  N   UNL     1     -23.138  -3.806 -28.879  1.00  0.00    -0.336 N 
ATOM     25  H   UNL     1     -23.857  -3.260 -28.401  1.00  0.00     0.168 HD
BRANCH  24  26
ATOM     26  C   UNL     1     -22.121  -4.266 -28.022  1.00  0.00     0.080 A 
ATOM     27  C   UNL     1     -20.870  -3.657 -27.896  1.00  0.00     0.079 A 
ATOM     28  C   UNL     1     -22.342  -5.452 -27.297  1.00  0.00     0.150 A 
ATOM     29  C   UNL     1     -19.892  -4.200 -27.056  1.00  0.00     0.163 A 
ATOM     30  C   UNL     1     -21.383  -5.995 -26.445  1.00  0.00     0.092 A 
ATOM     31  C   UNL     1     -20.159  -5.354 -26.311  1.00  0.00     0.164 A 
ATOM     32  O   UNL     1     -18.688  -3.542 -27.008  1.00  0.00    -0.486 OA
ATOM     33  O   UNL     1     -19.258  -5.917 -25.445  1.00  0.00    -0.486 OA
ATOM     34  C   UNL     1     -17.671  -4.352 -26.408  1.00  0.00     0.271 C 
ATOM     35  C   UNL     1     -18.190  -5.012 -25.142  1.00  0.00     0.271 C 
ATOM     36  F   UNL     1     -23.524  -6.079 -27.414  1.00  0.00    -0.205 F 
ENDBRANCH  24  26
ENDBRANCH   8  24
TORSDOF 4
ENDMDL
MODEL 18
REMARK VINA RESULT:    -8.188      4.290      7.167
REMARK INTER + INTRA:         -10.695
REMARK INTER:                  -9.702
REMARK INTRA:                  -0.993
REMARK UNBOUND:                -0.832
REMARK SMILES Nc1ccc2cc(-c3ccc4ncnc(Nc5cc6c(cc5F)OCCO6)c4n3)ccc2n1
REMARK SMILES IDX 8 1 29 2 28 3 11 4 12 5 13 6 14 7 15 8 10 9 9 10 7 11 3 12
REMARK SMILES IDX 4 13 2 14 5 15 33 16 6 17 32 18 31 19 30 20 1 21 16 24 17 26
REMARK SMILES IDX 18 27 22 28 19 29 21 30 20 31 27 32 24 33 26 34 25 35 23 36
REMARK H PARENT 1 22 1 23 16 25
ROOT
ATOM      1  C   UNL     1     -23.440  -4.239 -29.049  1.00  0.00     0.071 A 
ATOM      2  N   UNL     1     -22.593  -5.246 -29.369  1.00  0.00    -0.242 NA
ATOM      3  C   UNL     1     -21.968  -5.226 -30.582  1.00  0.00     0.132 A 
ATOM      4  C   UNL     1     -22.149  -4.208 -31.522  1.00  0.00     0.094 A 
ATOM      5  N   UNL     1     -21.532  -4.163 -32.712  1.00  0.00    -0.235 NA
ATOM      6  C   UNL     1     -20.701  -5.175 -32.982  1.00  0.00     0.225 A 
ATOM      7  N   UNL     1     -20.439  -6.208 -32.179  1.00  0.00    -0.217 NA
ATOM      8  C   UNL     1     -21.072  -6.225 -30.985  1.00  0.00     0.160 A 
ATOM      9  C   UNL     1     -23.025  -3.195 -31.171  1.00  0.00     0.033 A 
ATOM     10  C   UNL     1     -23.680  -3.200 -29.938  1.00  0.00     0.031 A 
ENDROOT
BRANCH   1  11
ATOM     11  C   UNL     1     -24.079  -4.336 -27.720  1.00  0.00     0.001 A 
ATOM     12  C   UNL     1     -24.201  -3.477 -22.929  1.00  0.00     0.047 A 
ATOM     13  C   UNL     1     -23.544  -3.350 -24.149  1.00  0.00     0.014 A 
ATOM     14  C   UNL     1     -25.418  -4.135 -22.897  1.00  0.00     0.124 A 
ATOM     15  C   UNL     1     -24.120  -3.891 -25.303  1.00  0.00     0.001 A 
ATOM     16  N   UNL     1     -25.989  -4.670 -23.987  1.00  0.00    -0.231 NA
ATOM     17  C   UNL     1     -23.496  -3.789 -26.564  1.00  0.00     0.020 A 
ATOM     18  C   UNL     1     -25.356  -4.552 -25.167  1.00  0.00     0.073 A 
ATOM     19  C   UNL     1     -25.924  -5.099 -26.306  1.00  0.00     0.030 A 
ATOM     20  C   UNL     1     -25.304  -5.000 -27.560  1.00  0.00     0.012 A 
BRANCH  14  21
ATOM     21  N   UNL     1     -26.099  -4.301 -21.693  1.00  0.00    -0.384 N 
ATOM     22  H   UNL     1     -25.964  -5.269 -21.412  1.00  0.00     0.158 HD
ATOM     23  H   UNL     1     -27.080  -4.070 -21.786  1.00  0.00     0.158 HD
ENDBRANCH  14  21
ENDBRANCH   1  11
BRANCH   8  24
ATOM     24  N   UNL     1     -20.883  -7.310 -30.086  1.00  0.00    -0.336 N 
ATOM     25  H   UNL     1     -21.769  -7.794 -29.929  1.00  0.00     0.168 HD
BRANCH  24  26
ATOM     26  C   UNL     1     -19.933  -7.539 -29.073  1.00  0.00     0.080 A 
ATOM     27  C   UNL     1     -19.658  -6.638 -28.041  1.00  0.00     0.079 A 
ATOM     28  C   UNL     1     -19.156  -8.711 -29.135  1.00  0.00     0.150 A 
ATOM     29  C   UNL     1     -18.666  -6.916 -27.095  1.00  0.00     0.163 A 
ATOM     30  C   UNL     1     -18.176  -9.007 -28.191  1.00  0.00     0.092 A 
ATOM     31  C   UNL     1     -17.944  -8.112 -27.156  1.00  0.00     0.164 A 
ATOM     32  O   UNL     1     -18.457  -5.965 -26.127  1.00  0.00    -0.486 OA
ATOM     33  O   UNL     1     -16.984  -8.459 -26.242  1.00  0.00    -0.486 OA
ATOM     34  C   UNL     1     -17.220  -6.181 -25.439  1.00  0.00     0.271 C 
ATOM     35  C   UNL     1     -17.063  -7.645 -25.067  1.00  0.00     0.271 C 
ATOM     36  F   UNL     1     -19.375  -9.587 -30.129  1.00  0.00    -0.205 F 
ENDBRANCH  24  26
ENDBRANCH   8  24
TORSDOF 4
ENDMDL
MODEL 19
REMARK VINA RESULT:    -8.182      3.076      5.937
REMARK INTER + INTRA:         -10.688
REMARK INTER:                  -9.492
REMARK INTRA:                  -1.196
REMARK UNBOUND:                -0.832
REMARK SMILES Nc1ccc2cc(-c3ccc4ncnc(Nc5cc6c(cc5F)OCCO6)c4n3)ccc2n1
REMARK SMILES IDX 8 1 29 2 28 3 11 4 12 5 13 6 14 7 15 8 10 9 9 10 7 11 3 12
REMARK SMILES IDX 4 13 2 14 5 15 33 16 6 17 32 18 31 19 30 20 1 21 16 24 17 26
REMARK SMILES IDX 18 27 22 28 19 29 21 30 20 31 27 32 24 33 26 34 25 35 23 36
REMARK H PARENT 1 22 1 23 16 25
ROOT
ATOM      1  C   UNL     1     -18.786  -9.523 -31.414  1.00  0.00     0.071 A 
ATOM      2  N   UNL     1     -19.141  -8.303 -31.883  1.00  0.00    -0.242 NA
ATOM      3  C   UNL     1     -19.583  -8.189 -33.169  1.00  0.00     0.132 A 
ATOM      4  C   UNL     1     -19.700  -9.276 -34.039  1.00  0.00     0.094 A 
ATOM      5  N   UNL     1     -20.147  -9.187 -35.300  1.00  0.00    -0.235 NA
ATOM      6  C   UNL     1     -20.492  -7.965 -35.717  1.00  0.00     0.225 A 
ATOM      7  N   UNL     1     -20.427  -6.845 -34.994  1.00  0.00    -0.217 NA
ATOM      8  C   UNL     1     -19.976  -6.965 -33.726  1.00  0.00     0.160 A 
ATOM      9  C   UNL     1     -19.325 -10.510 -33.535  1.00  0.00     0.033 A 
ATOM     10  C   UNL     1     -18.863 -10.648 -32.225  1.00  0.00     0.031 A 
ENDROOT
BRANCH   1  11
ATOM     11  C   UNL     1     -18.315  -9.560 -30.014  1.00  0.00     0.001 A 
ATOM     12  C   UNL     1     -17.682  -7.540 -25.630  1.00  0.00     0.047 A 
ATOM     13  C   UNL     1     -18.147  -7.436 -26.937  1.00  0.00     0.014 A 
ATOM     14  C   UNL     1     -17.093  -8.726 -25.228  1.00  0.00     0.124 A 
ATOM     15  C   UNL     1     -18.006  -8.520 -27.809  1.00  0.00     0.001 A 
ATOM     16  N   UNL     1     -16.938  -9.779 -26.045  1.00  0.00    -0.231 NA
ATOM     17  C   UNL     1     -18.461  -8.468 -29.143  1.00  0.00     0.020 A 
ATOM     18  C   UNL     1     -17.384  -9.681 -27.311  1.00  0.00     0.073 A 
ATOM     19  C   UNL     1     -17.232 -10.754 -28.174  1.00  0.00     0.030 A 
ATOM     20  C   UNL     1     -17.682 -10.702 -29.500  1.00  0.00     0.012 A 
BRANCH  14  21
ATOM     21  N   UNL     1     -16.597  -8.865 -23.934  1.00  0.00    -0.384 N 
ATOM     22  H   UNL     1     -17.369  -8.665 -23.302  1.00  0.00     0.158 HD
ATOM     23  H   UNL     1     -15.808  -8.252 -23.770  1.00  0.00     0.158 HD
ENDBRANCH  14  21
ENDBRANCH   1  11
BRANCH   8  24
ATOM     24  N   UNL     1     -19.836  -5.816 -32.900  1.00  0.00    -0.336 N 
ATOM     25  H   UNL     1     -18.918  -5.816 -32.453  1.00  0.00     0.168 HD
BRANCH  24  26
ATOM     26  C   UNL     1     -20.782  -5.013 -32.237  1.00  0.00     0.080 A 
ATOM     27  C   UNL     1     -21.790  -4.294 -32.885  1.00  0.00     0.079 A 
ATOM     28  C   UNL     1     -20.671  -4.859 -30.842  1.00  0.00     0.150 A 
ATOM     29  C   UNL     1     -22.667  -3.480 -32.160  1.00  0.00     0.163 A 
ATOM     30  C   UNL     1     -21.545  -4.064 -30.107  1.00  0.00     0.092 A 
ATOM     31  C   UNL     1     -22.559  -3.386 -30.769  1.00  0.00     0.164 A 
ATOM     32  O   UNL     1     -23.615  -2.801 -32.885  1.00  0.00    -0.486 OA
ATOM     33  O   UNL     1     -23.407  -2.633 -29.998  1.00  0.00    -0.486 OA
ATOM     34  C   UNL     1     -24.217  -1.757 -32.111  1.00  0.00     0.271 C 
ATOM     35  C   UNL     1     -24.582  -2.259 -30.725  1.00  0.00     0.271 C 
ATOM     36  F   UNL     1     -19.696  -5.514 -30.189  1.00  0.00    -0.205 F 
ENDBRANCH  24  26
ENDBRANCH   8  24
TORSDOF 4
ENDMDL
MODEL 20
REMARK VINA RESULT:    -8.090      4.764      7.526
REMARK INTER + INTRA:         -10.577
REMARK INTER:                  -9.758
REMARK INTRA:                  -0.819
REMARK UNBOUND:                -0.832
REMARK SMILES Nc1ccc2cc(-c3ccc4ncnc(Nc5cc6c(cc5F)OCCO6)c4n3)ccc2n1
REMARK SMILES IDX 8 1 29 2 28 3 11 4 12 5 13 6 14 7 15 8 10 9 9 10 7 11 3 12
REMARK SMILES IDX 4 13 2 14 5 15 33 16 6 17 32 18 31 19 30 20 1 21 16 24 17 26
REMARK SMILES IDX 18 27 22 28 19 29 21 30 20 31 27 32 24 33 26 34 25 35 23 36
REMARK H PARENT 1 22 1 23 16 25
ROOT
ATOM      1  C   UNL     1     -20.126  -5.424 -28.648  1.00  0.00     0.071 A 
ATOM      2  N   UNL     1     -21.250  -4.823 -28.189  1.00  0.00    -0.242 NA
ATOM      3  C   UNL     1     -22.062  -4.173 -29.072  1.00  0.00     0.132 A 
ATOM      4  C   UNL     1     -21.800  -4.097 -30.443  1.00  0.00     0.094 A 
ATOM      5  N   UNL     1     -22.593  -3.476 -31.328  1.00  0.00    -0.235 NA
ATOM      6  C   UNL     1     -23.693  -2.902 -30.831  1.00  0.00     0.225 A 
ATOM      7  N   UNL     1     -24.061  -2.897 -29.548  1.00  0.00    -0.217 NA
ATOM      8  C   UNL     1     -23.245  -3.533 -28.679  1.00  0.00     0.160 A 
ATOM      9  C   UNL     1     -20.642  -4.714 -30.883  1.00  0.00     0.033 A 
ATOM     10  C   UNL     1     -19.793  -5.379 -29.995  1.00  0.00     0.031 A 
ENDROOT
BRANCH   1  11
ATOM     11  C   UNL     1     -19.300  -6.104 -27.628  1.00  0.00     0.001 A 
ATOM     12  C   UNL     1     -16.658  -9.872 -26.040  1.00  0.00     0.047 A 
ATOM     13  C   UNL     1     -17.428  -9.291 -27.043  1.00  0.00     0.014 A 
ATOM     14  C   UNL     1     -16.445  -9.161 -24.872  1.00  0.00     0.124 A 
ATOM     15  C   UNL     1     -17.970  -8.017 -26.847  1.00  0.00     0.001 A 
ATOM     16  N   UNL     1     -16.959  -7.941 -24.655  1.00  0.00    -0.231 NA
ATOM     17  C   UNL     1     -18.757  -7.383 -27.831  1.00  0.00     0.020 A 
ATOM     18  C   UNL     1     -17.707  -7.377 -25.621  1.00  0.00     0.073 A 
ATOM     19  C   UNL     1     -18.251  -6.120 -25.418  1.00  0.00     0.030 A 
ATOM     20  C   UNL     1     -19.035  -5.489 -26.395  1.00  0.00     0.012 A 
BRANCH  14  21
ATOM     21  N   UNL     1     -15.696  -9.714 -23.836  1.00  0.00    -0.384 N 
ATOM     22  H   UNL     1     -16.348  -9.928 -23.086  1.00  0.00     0.158 HD
ATOM     23  H   UNL     1     -14.964  -9.085 -23.529  1.00  0.00     0.158 HD
ENDBRANCH  14  21
ENDBRANCH   1  11
BRANCH   8  24
ATOM     24  N   UNL     1     -23.540  -3.540 -27.288  1.00  0.00    -0.336 N 
ATOM     25  H   UNL     1     -22.674  -3.542 -26.747  1.00  0.00     0.168 HD
BRANCH  24  26
ATOM     26  C   UNL     1     -24.654  -4.004 -26.564  1.00  0.00     0.080 A 
ATOM     27  C   UNL     1     -25.672  -4.789 -27.113  1.00  0.00     0.079 A 
ATOM     28  C   UNL     1     -24.799  -3.598 -25.224  1.00  0.00     0.150 A 
ATOM     29  C   UNL     1     -26.772  -5.174 -26.341  1.00  0.00     0.163 A 
ATOM     30  C   UNL     1     -25.881  -3.986 -24.440  1.00  0.00     0.092 A 
ATOM     31  C   UNL     1     -26.863  -4.794 -24.997  1.00  0.00     0.164 A 
ATOM     32  O   UNL     1     -27.729  -5.931 -26.969  1.00  0.00    -0.486 OA
ATOM     33  O   UNL     1     -27.897  -5.166 -24.178  1.00  0.00    -0.486 OA
ATOM     34  C   UNL     1     -28.944  -5.974 -26.213  1.00  0.00     0.271 C 
ATOM     35  C   UNL     1     -28.653  -6.241 -24.747  1.00  0.00     0.271 C 
ATOM     36  F   UNL     1     -23.853  -2.821 -24.672  1.00  0.00    -0.205 F 
ENDBRANCH  24  26
ENDBRANCH   8  24
TORSDOF 4
ENDMDL
