REMARK SMILES Nc1nc(N)c2cc(Nc3nc(Nc4cc5cn[nH]c5cc4F)nc4cc(F)ccc34)c(F)cc2n1
REMARK SMILES IDX 12 1 24 2 25 3 26 4 27 5 29 6 30 7 31 8 10 9 11 10 28 11
REMARK SMILES IDX 13 12 14 14 15 15 22 16 16 17 21 18 20 19 17 20 19 21 18 22
REMARK SMILES IDX 23 23 9 25 8 27 7 28 32 29 6 30 34 31 35 32 4 33 36 34 3 35
REMARK SMILES IDX 2 36 33 37 5 38 1 41
REMARK H PARENT 13 13 19 24 9 26 5 39 5 40 1 42 1 43
ROOT
ATOM      1  C   UNL     1      -1.392   0.493  -0.466  1.00  0.00     0.229 A 
ATOM      2  N   UNL     1      -2.123   1.603  -0.595  1.00  0.00    -0.212 NA
ATOM      3  C   UNL     1      -1.544   2.695  -1.098  1.00  0.00     0.081 A 
ATOM      4  C   UNL     1      -2.306   3.848  -1.219  1.00  0.00     0.068 A 
ATOM      5  C   UNL     1      -1.755   5.020  -1.720  1.00  0.00     0.125 A 
ATOM      6  C   UNL     1      -0.430   5.075  -2.116  1.00  0.00     0.040 A 
ATOM      7  C   UNL     1       0.348   3.930  -2.008  1.00  0.00     0.017 A 
ATOM      8  C   UNL     1      -0.207   2.723  -1.502  1.00  0.00     0.043 A 
ATOM      9  C   UNL     1       0.481   1.510  -1.348  1.00  0.00     0.144 A 
ATOM     10  N   UNL     1      -0.107   0.418  -0.825  1.00  0.00    -0.195 NA
ATOM     11  F   UNL     1      -2.514   6.118  -1.809  1.00  0.00    -0.207 F 
ENDROOT
BRANCH   1  12
ATOM     12  N   UNL     1      -1.936  -0.677   0.045  1.00  0.00    -0.322 N 
ATOM     13  H   UNL     1      -1.252  -1.423   0.014  1.00  0.00     0.170 HD
BRANCH  12  14
ATOM     14  C   UNL     1      -3.187  -1.020   0.577  1.00  0.00     0.078 A 
ATOM     15  C   UNL     1      -4.224  -0.100   0.787  1.00  0.00     0.041 A 
ATOM     16  C   UNL     1      -3.425  -2.367   0.906  1.00  0.00     0.148 A 
ATOM     17  C   UNL     1      -5.454  -0.533   1.322  1.00  0.00     0.022 A 
ATOM     18  C   UNL     1      -4.633  -2.830   1.436  1.00  0.00     0.069 A 
ATOM     19  C   UNL     1      -5.630  -1.876   1.631  1.00  0.00     0.068 A 
ATOM     20  C   UNL     1      -6.682   0.071   1.669  1.00  0.00     0.143 A 
ATOM     21  N   UNL     1      -6.906  -1.969   2.122  1.00  0.00    -0.278 N 
ATOM     22  N   UNL     1      -7.567  -0.799   2.154  1.00  0.00    -0.183 NA
ATOM     23  F   UNL     1      -2.444  -3.263   0.705  1.00  0.00    -0.205 F 
ATOM     24  H   UNL     1      -7.387  -2.799   2.449  1.00  0.00     0.190 HD
ENDBRANCH  12  14
ENDBRANCH   1  12
BRANCH   9  25
ATOM     25  N   UNL     1       1.840   1.442  -1.738  1.00  0.00    -0.337 N 
ATOM     26  H   UNL     1       1.955   1.781  -2.691  1.00  0.00     0.168 HD
BRANCH  25  27
ATOM     27  C   UNL     1       2.805   0.458  -1.441  1.00  0.00     0.077 A 
ATOM     28  C   UNL     1       2.777  -0.326  -0.289  1.00  0.00     0.043 A 
ATOM     29  C   UNL     1       3.928   0.343  -2.267  1.00  0.00     0.148 A 
ATOM     30  C   UNL     1       3.837  -1.218   0.017  1.00  0.00     0.045 A 
ATOM     31  C   UNL     1       4.967  -0.538  -1.978  1.00  0.00     0.070 A 
ATOM     32  C   UNL     1       4.939  -1.322  -0.837  1.00  0.00     0.081 A 
ATOM     33  C   UNL     1       3.900  -2.034   1.152  1.00  0.00     0.137 A 
ATOM     34  N   UNL     1       5.971  -2.135  -0.589  1.00  0.00    -0.213 NA
ATOM     35  N   UNL     1       4.923  -2.865   1.403  1.00  0.00    -0.196 NA
ATOM     36  C   UNL     1       5.912  -2.888   0.512  1.00  0.00     0.222 A 
ATOM     37  F   UNL     1       4.009   1.096  -3.373  1.00  0.00    -0.205 F 
BRANCH  33  38
ATOM     38  N   UNL     1       2.876  -2.053   2.105  1.00  0.00    -0.383 N 
ATOM     39  H   UNL     1       3.171  -2.682   2.852  1.00  0.00     0.158 HD
ATOM     40  H   UNL     1       2.667  -1.124   2.455  1.00  0.00     0.158 HD
ENDBRANCH  33  38
BRANCH  36  41
ATOM     41  N   UNL     1       6.993  -3.698   0.781  1.00  0.00    -0.368 N 
ATOM     42  H   UNL     1       7.825  -3.325   0.348  1.00  0.00     0.159 HD
ATOM     43  H   UNL     1       7.026  -3.914   1.761  1.00  0.00     0.159 HD
ENDBRANCH  36  41
ENDBRANCH  25  27
ENDBRANCH   9  25
TORSDOF 6
