MODEL 1
REMARK VINA RESULT:    -9.934      0.000      0.000
REMARK INTER + INTRA:         -13.763
REMARK INTER:                 -12.837
REMARK INTRA:                  -0.926
REMARK UNBOUND:                -0.926
REMARK SMILES Nc1nc(N)c2cc(Nc3nc(Nc4cc5cn[nH]c5cc4F)nc4cc(F)ccc34)c(F)cc2n1
REMARK SMILES IDX 12 1 24 2 25 3 26 4 27 5 29 6 30 7 31 8 10 9 11 10 28 11
REMARK SMILES IDX 13 12 14 14 15 15 22 16 16 17 21 18 20 19 17 20 19 21 18 22
REMARK SMILES IDX 23 23 9 25 8 27 7 28 32 29 6 30 34 31 35 32 4 33 36 34 3 35
REMARK SMILES IDX 2 36 33 37 5 38 1 41
REMARK H PARENT 13 13 19 24 9 26 5 39 5 40 1 42 1 43
ROOT
ATOM      1  C   UNL     1     -20.634  -5.522 -31.967  1.00  0.00     0.229 A 
ATOM      2  N   UNL     1     -21.555  -4.803 -32.613  1.00  0.00    -0.212 NA
ATOM      3  C   UNL     1     -22.282  -3.925 -31.919  1.00  0.00     0.081 A 
ATOM      4  C   UNL     1     -23.246  -3.189 -32.594  1.00  0.00     0.068 A 
ATOM      5  C   UNL     1     -24.044  -2.272 -31.923  1.00  0.00     0.125 A 
ATOM      6  C   UNL     1     -23.904  -2.061 -30.563  1.00  0.00     0.040 A 
ATOM      7  C   UNL     1     -22.941  -2.784 -29.870  1.00  0.00     0.017 A 
ATOM      8  C   UNL     1     -22.114  -3.721 -30.547  1.00  0.00     0.043 A 
ATOM      9  C   UNL     1     -21.113  -4.505 -29.953  1.00  0.00     0.144 A 
ATOM     10  N   UNL     1     -20.396  -5.399 -30.658  1.00  0.00    -0.195 NA
ATOM     11  F   UNL     1     -24.974  -1.590 -32.602  1.00  0.00    -0.207 F 
ENDROOT
BRANCH   1  12
ATOM     12  N   UNL     1     -19.842  -6.448 -32.632  1.00  0.00    -0.322 N 
ATOM     13  H   UNL     1     -19.165  -6.850 -31.994  1.00  0.00     0.170 HD
BRANCH  12  14
ATOM     14  C   UNL     1     -19.793  -6.922 -33.950  1.00  0.00     0.078 A 
ATOM     15  C   UNL     1     -20.254  -8.187 -34.341  1.00  0.00     0.041 A 
ATOM     16  C   UNL     1     -19.266  -6.077 -34.944  1.00  0.00     0.148 A 
ATOM     17  C   UNL     1     -20.172  -8.582 -35.692  1.00  0.00     0.022 A 
ATOM     18  C   UNL     1     -19.172  -6.436 -36.292  1.00  0.00     0.069 A 
ATOM     19  C   UNL     1     -19.639  -7.706 -36.628  1.00  0.00     0.068 A 
ATOM     20  C   UNL     1     -20.511  -9.731 -36.439  1.00  0.00     0.143 A 
ATOM     21  N   UNL     1     -19.698  -8.375 -37.823  1.00  0.00    -0.278 N 
ATOM     22  N   UNL     1     -20.226  -9.608 -37.734  1.00  0.00    -0.183 NA
ATOM     23  F   UNL     1     -18.826  -4.859 -34.587  1.00  0.00    -0.205 F 
ATOM     24  H   UNL     1     -19.399  -8.047 -38.734  1.00  0.00     0.190 HD
ENDBRANCH  12  14
ENDBRANCH   1  12
BRANCH   9  25
ATOM     25  N   UNL     1     -20.867  -4.361 -28.567  1.00  0.00    -0.337 N 
ATOM     26  H   UNL     1     -20.497  -3.434 -28.365  1.00  0.00     0.168 HD
BRANCH  25  27
ATOM     27  C   UNL     1     -20.369  -5.306 -27.647  1.00  0.00     0.077 A 
ATOM     28  C   UNL     1     -19.120  -5.204 -27.037  1.00  0.00     0.043 A 
ATOM     29  C   UNL     1     -21.097  -6.480 -27.425  1.00  0.00     0.148 A 
ATOM     30  C   UNL     1     -18.621  -6.244 -26.211  1.00  0.00     0.045 A 
ATOM     31  C   UNL     1     -20.617  -7.499 -26.607  1.00  0.00     0.070 A 
ATOM     32  C   UNL     1     -19.378  -7.399 -25.996  1.00  0.00     0.081 A 
ATOM     33  C   UNL     1     -17.377  -6.234 -25.568  1.00  0.00     0.137 A 
ATOM     34  N   UNL     1     -18.950  -8.414 -25.238  1.00  0.00    -0.213 NA
ATOM     35  N   UNL     1     -16.944  -7.240 -24.793  1.00  0.00    -0.196 NA
ATOM     36  C   UNL     1     -17.757  -8.284 -24.652  1.00  0.00     0.222 A 
ATOM     37  F   UNL     1     -22.293  -6.632 -28.011  1.00  0.00    -0.205 F 
BRANCH  33  38
ATOM     38  N   UNL     1     -16.499  -5.151 -25.676  1.00  0.00    -0.383 N 
ATOM     39  H   UNL     1     -16.703  -4.519 -24.902  1.00  0.00     0.158 HD
ATOM     40  H   UNL     1     -15.529  -5.448 -25.675  1.00  0.00     0.158 HD
ENDBRANCH  33  38
BRANCH  36  41
ATOM     41  N   UNL     1     -17.305  -9.347 -23.901  1.00  0.00    -0.368 N 
ATOM     42  H   UNL     1     -18.072  -9.774 -23.403  1.00  0.00     0.159 HD
ATOM     43  H   UNL     1     -16.716  -9.938 -24.460  1.00  0.00     0.159 HD
ENDBRANCH  36  41
ENDBRANCH  25  27
ENDBRANCH   9  25
TORSDOF 6
ENDMDL
MODEL 2
REMARK VINA RESULT:    -9.881      1.140      1.723
REMARK INTER + INTRA:         -13.696
REMARK INTER:                 -13.005
REMARK INTRA:                  -0.691
REMARK UNBOUND:                -0.926
REMARK SMILES Nc1nc(N)c2cc(Nc3nc(Nc4cc5cn[nH]c5cc4F)nc4cc(F)ccc34)c(F)cc2n1
REMARK SMILES IDX 12 1 24 2 25 3 26 4 27 5 29 6 30 7 31 8 10 9 11 10 28 11
REMARK SMILES IDX 13 12 14 14 15 15 22 16 16 17 21 18 20 19 17 20 19 21 18 22
REMARK SMILES IDX 23 23 9 25 8 27 7 28 32 29 6 30 34 31 35 32 4 33 36 34 3 35
REMARK SMILES IDX 2 36 33 37 5 38 1 41
REMARK H PARENT 13 13 19 24 9 26 5 39 5 40 1 42 1 43
ROOT
ATOM      1  C   UNL     1     -20.635  -5.618 -31.987  1.00  0.00     0.229 A 
ATOM      2  N   UNL     1     -21.592  -4.936 -32.621  1.00  0.00    -0.212 NA
ATOM      3  C   UNL     1     -22.284  -4.021 -31.939  1.00  0.00     0.081 A 
ATOM      4  C   UNL     1     -23.284  -3.324 -32.600  1.00  0.00     0.068 A 
ATOM      5  C   UNL     1     -24.049  -2.372 -31.940  1.00  0.00     0.125 A 
ATOM      6  C   UNL     1     -23.838  -2.087 -30.602  1.00  0.00     0.040 A 
ATOM      7  C   UNL     1     -22.838  -2.770 -29.923  1.00  0.00     0.017 A 
ATOM      8  C   UNL     1     -22.044  -3.743 -30.591  1.00  0.00     0.043 A 
ATOM      9  C   UNL     1     -21.011  -4.493 -30.009  1.00  0.00     0.144 A 
ATOM     10  N   UNL     1     -20.329  -5.424 -30.700  1.00  0.00    -0.195 NA
ATOM     11  F   UNL     1     -25.016  -1.728 -32.604  1.00  0.00    -0.207 F 
ENDROOT
BRANCH   1  12
ATOM     12  N   UNL     1     -19.876  -6.578 -32.640  1.00  0.00    -0.322 N 
ATOM     13  H   UNL     1     -19.256  -7.040 -31.985  1.00  0.00     0.170 HD
BRANCH  12  14
ATOM     14  C   UNL     1     -19.799  -7.023 -33.968  1.00  0.00     0.078 A 
ATOM     15  C   UNL     1     -20.257  -8.277 -34.398  1.00  0.00     0.041 A 
ATOM     16  C   UNL     1     -19.245  -6.159 -34.930  1.00  0.00     0.148 A 
ATOM     17  C   UNL     1     -20.145  -8.642 -35.755  1.00  0.00     0.022 A 
ATOM     18  C   UNL     1     -19.121  -6.489 -36.283  1.00  0.00     0.069 A 
ATOM     19  C   UNL     1     -19.586  -7.747 -36.659  1.00  0.00     0.068 A 
ATOM     20  C   UNL     1     -20.473  -9.772 -36.535  1.00  0.00     0.143 A 
ATOM     21  N   UNL     1     -19.621  -8.389 -37.869  1.00  0.00    -0.278 N 
ATOM     22  N   UNL     1     -20.157  -9.621 -37.821  1.00  0.00    -0.183 NA
ATOM     23  F   UNL     1     -18.807  -4.952 -34.536  1.00  0.00    -0.205 F 
ATOM     24  H   UNL     1     -19.299  -8.043 -38.766  1.00  0.00     0.190 HD
ENDBRANCH  12  14
ENDBRANCH   1  12
BRANCH   9  25
ATOM     25  N   UNL     1     -20.692  -4.273 -28.647  1.00  0.00    -0.337 N 
ATOM     26  H   UNL     1     -20.748  -3.282 -28.423  1.00  0.00     0.168 HD
BRANCH  25  27
ATOM     27  C   UNL     1     -19.724  -4.910 -27.844  1.00  0.00     0.077 A 
ATOM     28  C   UNL     1     -19.610  -6.294 -27.726  1.00  0.00     0.043 A 
ATOM     29  C   UNL     1     -18.918  -4.128 -27.011  1.00  0.00     0.148 A 
ATOM     30  C   UNL     1     -18.696  -6.880 -26.813  1.00  0.00     0.045 A 
ATOM     31  C   UNL     1     -18.011  -4.696 -26.120  1.00  0.00     0.070 A 
ATOM     32  C   UNL     1     -17.891  -6.071 -26.005  1.00  0.00     0.081 A 
ATOM     33  C   UNL     1     -18.520  -8.254 -26.620  1.00  0.00     0.137 A 
ATOM     34  N   UNL     1     -17.025  -6.570 -25.118  1.00  0.00    -0.213 NA
ATOM     35  N   UNL     1     -17.642  -8.767 -25.744  1.00  0.00    -0.196 NA
ATOM     36  C   UNL     1     -16.922  -7.899 -25.037  1.00  0.00     0.222 A 
ATOM     37  F   UNL     1     -19.012  -2.792 -27.072  1.00  0.00    -0.205 F 
BRANCH  33  38
ATOM     38  N   UNL     1     -19.245  -9.201 -27.352  1.00  0.00    -0.383 N 
ATOM     39  H   UNL     1     -18.596  -9.635 -28.009  1.00  0.00     0.158 HD
ATOM     40  H   UNL     1     -19.687  -9.887 -26.751  1.00  0.00     0.158 HD
ENDBRANCH  33  38
BRANCH  36  41
ATOM     41  N   UNL     1     -16.053  -8.408 -24.098  1.00  0.00    -0.368 N 
ATOM     42  H   UNL     1     -16.073  -9.417 -24.115  1.00  0.00     0.159 HD
ATOM     43  H   UNL     1     -15.161  -7.952 -24.170  1.00  0.00     0.159 HD
ENDBRANCH  36  41
ENDBRANCH  25  27
ENDBRANCH   9  25
TORSDOF 6
ENDMDL
MODEL 3
REMARK VINA RESULT:    -9.697      2.364      7.388
REMARK INTER + INTRA:         -13.457
REMARK INTER:                 -12.157
REMARK INTRA:                  -1.300
REMARK UNBOUND:                -0.926
REMARK SMILES Nc1nc(N)c2cc(Nc3nc(Nc4cc5cn[nH]c5cc4F)nc4cc(F)ccc34)c(F)cc2n1
REMARK SMILES IDX 12 1 24 2 25 3 26 4 27 5 29 6 30 7 31 8 10 9 11 10 28 11
REMARK SMILES IDX 13 12 14 14 15 15 22 16 16 17 21 18 20 19 17 20 19 21 18 22
REMARK SMILES IDX 23 23 9 25 8 27 7 28 32 29 6 30 34 31 35 32 4 33 36 34 3 35
REMARK SMILES IDX 2 36 33 37 5 38 1 41
REMARK H PARENT 13 13 19 24 9 26 5 39 5 40 1 42 1 43
ROOT
ATOM      1  C   UNL     1     -21.172  -4.156 -28.671  1.00  0.00     0.229 A 
ATOM      2  N   UNL     1     -22.226  -3.403 -28.995  1.00  0.00    -0.212 NA
ATOM      3  C   UNL     1     -22.567  -3.301 -30.281  1.00  0.00     0.081 A 
ATOM      4  C   UNL     1     -23.656  -2.509 -30.613  1.00  0.00     0.068 A 
ATOM      5  C   UNL     1     -24.049  -2.351 -31.936  1.00  0.00     0.125 A 
ATOM      6  C   UNL     1     -23.369  -2.980 -32.964  1.00  0.00     0.040 A 
ATOM      7  C   UNL     1     -22.279  -3.782 -32.652  1.00  0.00     0.017 A 
ATOM      8  C   UNL     1     -21.871  -3.956 -31.301  1.00  0.00     0.043 A 
ATOM      9  C   UNL     1     -20.790  -4.738 -30.870  1.00  0.00     0.144 A 
ATOM     10  N   UNL     1     -20.444  -4.822 -29.572  1.00  0.00    -0.195 NA
ATOM     11  F   UNL     1     -25.095  -1.567 -32.222  1.00  0.00    -0.207 F 
ENDROOT
BRANCH   1  12
ATOM     12  N   UNL     1     -20.769  -4.307 -27.351  1.00  0.00    -0.322 N 
ATOM     13  H   UNL     1     -21.452  -3.895 -26.728  1.00  0.00     0.170 HD
BRANCH  12  14
ATOM     14  C   UNL     1     -19.656  -4.894 -26.732  1.00  0.00     0.078 A 
ATOM     15  C   UNL     1     -19.609  -6.234 -26.322  1.00  0.00     0.041 A 
ATOM     16  C   UNL     1     -18.514  -4.100 -26.523  1.00  0.00     0.148 A 
ATOM     17  C   UNL     1     -18.445  -6.745 -25.712  1.00  0.00     0.022 A 
ATOM     18  C   UNL     1     -17.344  -4.575 -25.922  1.00  0.00     0.069 A 
ATOM     19  C   UNL     1     -17.348  -5.912 -25.528  1.00  0.00     0.068 A 
ATOM     20  C   UNL     1     -18.036  -7.987 -25.179  1.00  0.00     0.143 A 
ATOM     21  N   UNL     1     -16.400  -6.693 -24.921  1.00  0.00    -0.278 N 
ATOM     22  N   UNL     1     -16.794  -7.959 -24.699  1.00  0.00    -0.183 NA
ATOM     23  F   UNL     1     -18.540  -2.816 -26.915  1.00  0.00    -0.205 F 
ATOM     24  H   UNL     1     -15.465  -6.426 -24.634  1.00  0.00     0.190 HD
ENDBRANCH  12  14
ENDBRANCH   1  12
BRANCH   9  25
ATOM     25  N   UNL     1     -20.031  -5.444 -31.833  1.00  0.00    -0.337 N 
ATOM     26  H   UNL     1     -19.812  -4.843 -32.625  1.00  0.00     0.168 HD
BRANCH  25  27
ATOM     27  C   UNL     1     -20.140  -6.788 -32.245  1.00  0.00     0.077 A 
ATOM     28  C   UNL     1     -20.030  -7.872 -31.375  1.00  0.00     0.043 A 
ATOM     29  C   UNL     1     -20.227  -7.070 -33.612  1.00  0.00     0.148 A 
ATOM     30  C   UNL     1     -20.030  -9.205 -31.861  1.00  0.00     0.045 A 
ATOM     31  C   UNL     1     -20.238  -8.377 -34.095  1.00  0.00     0.070 A 
ATOM     32  C   UNL     1     -20.135  -9.455 -33.232  1.00  0.00     0.081 A 
ATOM     33  C   UNL     1     -19.914 -10.351 -31.066  1.00  0.00     0.137 A 
ATOM     34  N   UNL     1     -20.125 -10.690 -33.744  1.00  0.00    -0.213 NA
ATOM     35  N   UNL     1     -19.919 -11.595 -31.568  1.00  0.00    -0.196 NA
ATOM     36  C   UNL     1     -20.037 -11.711 -32.889  1.00  0.00     0.222 A 
ATOM     37  F   UNL     1     -20.309  -6.058 -34.487  1.00  0.00    -0.205 F 
BRANCH  33  38
ATOM     38  N   UNL     1     -19.805 -10.275 -29.674  1.00  0.00    -0.383 N 
ATOM     39  H   UNL     1     -19.145 -10.997 -29.383  1.00  0.00     0.158 HD
ATOM     40  H   UNL     1     -19.515  -9.353 -29.366  1.00  0.00     0.158 HD
ENDBRANCH  33  38
BRANCH  36  41
ATOM     41  N   UNL     1     -19.992 -12.980 -33.423  1.00  0.00    -0.368 N 
ATOM     42  H   UNL     1     -20.890 -13.430 -33.330  1.00  0.00     0.159 HD
ATOM     43  H   UNL     1     -19.567 -12.956 -34.333  1.00  0.00     0.159 HD
ENDBRANCH  36  41
ENDBRANCH  25  27
ENDBRANCH   9  25
TORSDOF 6
ENDMDL
MODEL 4
REMARK VINA RESULT:    -9.665      4.400      7.965
REMARK INTER + INTRA:         -13.416
REMARK INTER:                 -12.461
REMARK INTRA:                  -0.955
REMARK UNBOUND:                -0.926
REMARK SMILES Nc1nc(N)c2cc(Nc3nc(Nc4cc5cn[nH]c5cc4F)nc4cc(F)ccc34)c(F)cc2n1
REMARK SMILES IDX 12 1 24 2 25 3 26 4 27 5 29 6 30 7 31 8 10 9 11 10 28 11
REMARK SMILES IDX 13 12 14 14 15 15 22 16 16 17 21 18 20 19 17 20 19 21 18 22
REMARK SMILES IDX 23 23 9 25 8 27 7 28 32 29 6 30 34 31 35 32 4 33 36 34 3 35
REMARK SMILES IDX 2 36 33 37 5 38 1 41
REMARK H PARENT 13 13 19 24 9 26 5 39 5 40 1 42 1 43
ROOT
ATOM      1  C   UNL     1     -20.923  -4.587 -27.311  1.00  0.00     0.229 A 
ATOM      2  N   UNL     1     -20.375  -4.673 -28.525  1.00  0.00    -0.212 NA
ATOM      3  C   UNL     1     -21.160  -4.520 -29.594  1.00  0.00     0.081 A 
ATOM      4  C   UNL     1     -20.586  -4.622 -30.853  1.00  0.00     0.068 A 
ATOM      5  C   UNL     1     -21.354  -4.488 -32.002  1.00  0.00     0.125 A 
ATOM      6  C   UNL     1     -22.715  -4.248 -31.928  1.00  0.00     0.040 A 
ATOM      7  C   UNL     1     -23.307  -4.137 -30.677  1.00  0.00     0.017 A 
ATOM      8  C   UNL     1     -22.530  -4.266 -29.494  1.00  0.00     0.043 A 
ATOM      9  C   UNL     1     -23.018  -4.174 -28.182  1.00  0.00     0.144 A 
ATOM     10  N   UNL     1     -22.222  -4.345 -27.111  1.00  0.00    -0.195 NA
ATOM     11  F   UNL     1     -20.771  -4.608 -33.200  1.00  0.00    -0.207 F 
ENDROOT
BRANCH   1  12
ATOM     12  N   UNL     1     -20.161  -4.731 -26.160  1.00  0.00    -0.322 N 
ATOM     13  H   UNL     1     -20.488  -4.096 -25.442  1.00  0.00     0.170 HD
BRANCH  12  14
ATOM     14  C   UNL     1     -19.078  -5.547 -25.804  1.00  0.00     0.078 A 
ATOM     15  C   UNL     1     -19.130  -6.948 -25.783  1.00  0.00     0.041 A 
ATOM     16  C   UNL     1     -17.862  -4.929 -25.461  1.00  0.00     0.148 A 
ATOM     17  C   UNL     1     -17.990  -7.692 -25.417  1.00  0.00     0.022 A 
ATOM     18  C   UNL     1     -16.712  -5.636 -25.096  1.00  0.00     0.069 A 
ATOM     19  C   UNL     1     -16.817  -7.025 -25.085  1.00  0.00     0.068 A 
ATOM     20  C   UNL     1     -17.669  -9.059 -25.277  1.00  0.00     0.143 A 
ATOM     21  N   UNL     1     -15.915  -8.012 -24.783  1.00  0.00    -0.278 N 
ATOM     22  N   UNL     1     -16.408  -9.257 -24.893  1.00  0.00    -0.183 NA
ATOM     23  F   UNL     1     -17.792  -3.587 -25.482  1.00  0.00    -0.205 F 
ATOM     24  H   UNL     1     -14.949  -7.904 -24.498  1.00  0.00     0.190 HD
ENDBRANCH  12  14
ENDBRANCH   1  12
BRANCH   9  25
ATOM     25  N   UNL     1     -24.395  -3.911 -27.984  1.00  0.00    -0.337 N 
ATOM     26  H   UNL     1     -24.628  -2.971 -28.298  1.00  0.00     0.168 HD
BRANCH  25  27
ATOM     27  C   UNL     1     -25.233  -4.300 -26.919  1.00  0.00     0.077 A 
ATOM     28  C   UNL     1     -25.188  -3.722 -25.651  1.00  0.00     0.043 A 
ATOM     29  C   UNL     1     -26.064  -5.413 -27.086  1.00  0.00     0.148 A 
ATOM     30  C   UNL     1     -25.971  -4.232 -24.584  1.00  0.00     0.045 A 
ATOM     31  C   UNL     1     -26.844  -5.912 -26.045  1.00  0.00     0.070 A 
ATOM     32  C   UNL     1     -26.804  -5.336 -24.787  1.00  0.00     0.081 A 
ATOM     33  C   UNL     1     -25.983  -3.724 -23.280  1.00  0.00     0.137 A 
ATOM     34  N   UNL     1     -27.552  -5.865 -23.813  1.00  0.00    -0.213 NA
ATOM     35  N   UNL     1     -26.740  -4.237 -22.299  1.00  0.00    -0.196 NA
ATOM     36  C   UNL     1     -27.504  -5.282 -22.613  1.00  0.00     0.222 A 
ATOM     37  F   UNL     1     -26.121  -6.016 -28.281  1.00  0.00    -0.205 F 
BRANCH  33  38
ATOM     38  N   UNL     1     -25.208  -2.619 -22.912  1.00  0.00    -0.383 N 
ATOM     39  H   UNL     1     -25.395  -2.435 -21.926  1.00  0.00     0.158 HD
ATOM     40  H   UNL     1     -24.221  -2.773 -23.086  1.00  0.00     0.158 HD
ENDBRANCH  33  38
BRANCH  36  41
ATOM     41  N   UNL     1     -28.249  -5.852 -21.604  1.00  0.00    -0.368 N 
ATOM     42  H   UNL     1     -27.763  -6.649 -21.219  1.00  0.00     0.159 HD
ATOM     43  H   UNL     1     -28.571  -5.143 -20.971  1.00  0.00     0.159 HD
ENDBRANCH  36  41
ENDBRANCH  25  27
ENDBRANCH   9  25
TORSDOF 6
ENDMDL
MODEL 5
REMARK VINA RESULT:    -9.648      4.339      7.033
REMARK INTER + INTRA:         -13.394
REMARK INTER:                 -12.290
REMARK INTRA:                  -1.104
REMARK UNBOUND:                -0.926
REMARK SMILES Nc1nc(N)c2cc(Nc3nc(Nc4cc5cn[nH]c5cc4F)nc4cc(F)ccc34)c(F)cc2n1
REMARK SMILES IDX 12 1 24 2 25 3 26 4 27 5 29 6 30 7 31 8 10 9 11 10 28 11
REMARK SMILES IDX 13 12 14 14 15 15 22 16 16 17 21 18 20 19 17 20 19 21 18 22
REMARK SMILES IDX 23 23 9 25 8 27 7 28 32 29 6 30 34 31 35 32 4 33 36 34 3 35
REMARK SMILES IDX 2 36 33 37 5 38 1 41
REMARK H PARENT 13 13 19 24 9 26 5 39 5 40 1 42 1 43
ROOT
ATOM      1  C   UNL     1     -21.226  -5.809 -28.827  1.00  0.00     0.229 A 
ATOM      2  N   UNL     1     -19.941  -5.617 -28.517  1.00  0.00    -0.212 NA
ATOM      3  C   UNL     1     -19.634  -5.221 -27.280  1.00  0.00     0.081 A 
ATOM      4  C   UNL     1     -18.299  -5.013 -26.967  1.00  0.00     0.068 A 
ATOM      5  C   UNL     1     -17.919  -4.585 -25.702  1.00  0.00     0.125 A 
ATOM      6  C   UNL     1     -18.859  -4.355 -24.713  1.00  0.00     0.040 A 
ATOM      7  C   UNL     1     -20.201  -4.563 -25.004  1.00  0.00     0.017 A 
ATOM      8  C   UNL     1     -20.601  -5.006 -26.294  1.00  0.00     0.043 A 
ATOM      9  C   UNL     1     -21.922  -5.248 -26.701  1.00  0.00     0.144 A 
ATOM     10  N   UNL     1     -22.223  -5.632 -27.955  1.00  0.00    -0.195 NA
ATOM     11  F   UNL     1     -16.623  -4.380 -25.439  1.00  0.00    -0.207 F 
ENDROOT
BRANCH   1  12
ATOM     12  N   UNL     1     -21.610  -6.226 -30.094  1.00  0.00    -0.322 N 
ATOM     13  H   UNL     1     -22.145  -7.083 -30.032  1.00  0.00     0.170 HD
BRANCH  12  14
ATOM     14  C   UNL     1     -21.420  -5.718 -31.387  1.00  0.00     0.078 A 
ATOM     15  C   UNL     1     -20.423  -6.170 -32.263  1.00  0.00     0.041 A 
ATOM     16  C   UNL     1     -22.288  -4.708 -31.841  1.00  0.00     0.148 A 
ATOM     17  C   UNL     1     -20.307  -5.607 -33.550  1.00  0.00     0.022 A 
ATOM     18  C   UNL     1     -22.201  -4.130 -33.111  1.00  0.00     0.069 A 
ATOM     19  C   UNL     1     -21.191  -4.610 -33.942  1.00  0.00     0.068 A 
ATOM     20  C   UNL     1     -19.462  -5.786 -34.667  1.00  0.00     0.143 A 
ATOM     21  N   UNL     1     -20.819  -4.280 -35.220  1.00  0.00    -0.278 N 
ATOM     22  N   UNL     1     -19.771  -4.983 -35.683  1.00  0.00    -0.183 NA
ATOM     23  F   UNL     1     -23.253  -4.268 -31.016  1.00  0.00    -0.205 F 
ATOM     24  H   UNL     1     -21.240  -3.589 -35.830  1.00  0.00     0.190 HD
ENDBRANCH  12  14
ENDBRANCH   1  12
BRANCH   9  25
ATOM     25  N   UNL     1     -22.968  -5.063 -25.766  1.00  0.00    -0.337 N 
ATOM     26  H   UNL     1     -22.651  -5.290 -24.826  1.00  0.00     0.168 HD
BRANCH  25  27
ATOM     27  C   UNL     1     -24.345  -5.331 -25.904  1.00  0.00     0.077 A 
ATOM     28  C   UNL     1     -25.294  -4.356 -26.206  1.00  0.00     0.043 A 
ATOM     29  C   UNL     1     -24.818  -6.610 -25.592  1.00  0.00     0.148 A 
ATOM     30  C   UNL     1     -26.680  -4.659 -26.217  1.00  0.00     0.045 A 
ATOM     31  C   UNL     1     -26.177  -6.917 -25.610  1.00  0.00     0.070 A 
ATOM     32  C   UNL     1     -27.121  -5.951 -25.916  1.00  0.00     0.081 A 
ATOM     33  C   UNL     1     -27.702  -3.745 -26.498  1.00  0.00     0.137 A 
ATOM     34  N   UNL     1     -28.415  -6.287 -25.897  1.00  0.00    -0.213 NA
ATOM     35  N   UNL     1     -29.002  -4.075 -26.497  1.00  0.00    -0.196 NA
ATOM     36  C   UNL     1     -29.302  -5.339 -26.207  1.00  0.00     0.222 A 
ATOM     37  F   UNL     1     -23.943  -7.573 -25.271  1.00  0.00    -0.205 F 
BRANCH  33  38
ATOM     38  N   UNL     1     -27.430  -2.411 -26.822  1.00  0.00    -0.383 N 
ATOM     39  H   UNL     1     -28.046  -2.158 -27.595  1.00  0.00     0.158 HD
ATOM     40  H   UNL     1     -27.552  -1.795 -26.026  1.00  0.00     0.158 HD
ENDBRANCH  33  38
BRANCH  36  41
ATOM     41  N   UNL     1     -30.635  -5.681 -26.153  1.00  0.00    -0.368 N 
ATOM     42  H   UNL     1     -30.780  -6.413 -25.473  1.00  0.00     0.159 HD
ATOM     43  H   UNL     1     -31.200  -4.853 -26.084  1.00  0.00     0.159 HD
ENDBRANCH  36  41
ENDBRANCH  25  27
ENDBRANCH   9  25
TORSDOF 6
ENDMDL
MODEL 6
REMARK VINA RESULT:    -9.606      1.791      7.880
REMARK INTER + INTRA:         -13.340
REMARK INTER:                 -12.429
REMARK INTRA:                  -0.911
REMARK UNBOUND:                -0.926
REMARK SMILES Nc1nc(N)c2cc(Nc3nc(Nc4cc5cn[nH]c5cc4F)nc4cc(F)ccc34)c(F)cc2n1
REMARK SMILES IDX 12 1 24 2 25 3 26 4 27 5 29 6 30 7 31 8 10 9 11 10 28 11
REMARK SMILES IDX 13 12 14 14 15 15 22 16 16 17 21 18 20 19 17 20 19 21 18 22
REMARK SMILES IDX 23 23 9 25 8 27 7 28 32 29 6 30 34 31 35 32 4 33 36 34 3 35
REMARK SMILES IDX 2 36 33 37 5 38 1 41
REMARK H PARENT 13 13 19 24 9 26 5 39 5 40 1 42 1 43
ROOT
ATOM      1  C   UNL     1     -21.175  -4.206 -28.639  1.00  0.00     0.229 A 
ATOM      2  N   UNL     1     -22.271  -3.509 -28.951  1.00  0.00    -0.212 NA
ATOM      3  C   UNL     1     -22.598  -3.374 -30.237  1.00  0.00     0.081 A 
ATOM      4  C   UNL     1     -23.732  -2.640 -30.554  1.00  0.00     0.068 A 
ATOM      5  C   UNL     1     -24.115  -2.450 -31.875  1.00  0.00     0.125 A 
ATOM      6  C   UNL     1     -23.380  -2.988 -32.917  1.00  0.00     0.040 A 
ATOM      7  C   UNL     1     -22.245  -3.731 -32.620  1.00  0.00     0.017 A 
ATOM      8  C   UNL     1     -21.846  -3.936 -31.271  1.00  0.00     0.043 A 
ATOM      9  C   UNL     1     -20.723  -4.666 -30.854  1.00  0.00     0.144 A 
ATOM     10  N   UNL     1     -20.391  -4.784 -29.555  1.00  0.00    -0.195 NA
ATOM     11  F   UNL     1     -25.205  -1.724 -32.146  1.00  0.00    -0.207 F 
ENDROOT
BRANCH   1  12
ATOM     12  N   UNL     1     -20.782  -4.388 -27.321  1.00  0.00    -0.322 N 
ATOM     13  H   UNL     1     -21.481  -4.009 -26.693  1.00  0.00     0.170 HD
BRANCH  12  14
ATOM     14  C   UNL     1     -19.664  -4.970 -26.707  1.00  0.00     0.078 A 
ATOM     15  C   UNL     1     -19.606  -6.311 -26.302  1.00  0.00     0.041 A 
ATOM     16  C   UNL     1     -18.526  -4.170 -26.499  1.00  0.00     0.148 A 
ATOM     17  C   UNL     1     -18.438  -6.816 -25.697  1.00  0.00     0.022 A 
ATOM     18  C   UNL     1     -17.351  -4.639 -25.904  1.00  0.00     0.069 A 
ATOM     19  C   UNL     1     -17.346  -5.977 -25.514  1.00  0.00     0.068 A 
ATOM     20  C   UNL     1     -18.019  -8.057 -25.170  1.00  0.00     0.143 A 
ATOM     21  N   UNL     1     -16.390  -6.754 -24.912  1.00  0.00    -0.278 N 
ATOM     22  N   UNL     1     -16.775  -8.023 -24.694  1.00  0.00    -0.183 NA
ATOM     23  F   UNL     1     -18.562  -2.884 -26.887  1.00  0.00    -0.205 F 
ATOM     24  H   UNL     1     -15.457  -6.481 -24.628  1.00  0.00     0.190 HD
ENDBRANCH  12  14
ENDBRANCH   1  12
BRANCH   9  25
ATOM     25  N   UNL     1     -19.905  -5.278 -31.834  1.00  0.00    -0.337 N 
ATOM     26  H   UNL     1     -19.643  -4.605 -32.552  1.00  0.00     0.168 HD
BRANCH  25  27
ATOM     27  C   UNL     1     -19.983  -6.577 -32.375  1.00  0.00     0.077 A 
ATOM     28  C   UNL     1     -20.165  -6.837 -33.732  1.00  0.00     0.043 A 
ATOM     29  C   UNL     1     -20.015  -7.671 -31.504  1.00  0.00     0.148 A 
ATOM     30  C   UNL     1     -20.355  -8.161 -34.207  1.00  0.00     0.045 A 
ATOM     31  C   UNL     1     -20.191  -8.974 -31.964  1.00  0.00     0.070 A 
ATOM     32  C   UNL     1     -20.367  -9.235 -33.312  1.00  0.00     0.081 A 
ATOM     33  C   UNL     1     -20.555  -8.515 -35.546  1.00  0.00     0.137 A 
ATOM     34  N   UNL     1     -20.556 -10.499 -33.704  1.00  0.00    -0.213 NA
ATOM     35  N   UNL     1     -20.731  -9.782 -35.952  1.00  0.00    -0.196 NA
ATOM     36  C   UNL     1     -20.711 -10.723 -35.011  1.00  0.00     0.222 A 
ATOM     37  F   UNL     1     -19.869  -7.466 -30.187  1.00  0.00    -0.205 F 
BRANCH  33  38
ATOM     38  N   UNL     1     -20.567  -7.560 -36.568  1.00  0.00    -0.383 N 
ATOM     39  H   UNL     1     -19.648  -7.117 -36.577  1.00  0.00     0.158 HD
ATOM     40  H   UNL     1     -20.797  -7.970 -37.467  1.00  0.00     0.158 HD
ENDBRANCH  33  38
BRANCH  36  41
ATOM     41  N   UNL     1     -20.941 -12.023 -35.405  1.00  0.00    -0.368 N 
ATOM     42  H   UNL     1     -21.142 -12.601 -34.603  1.00  0.00     0.159 HD
ATOM     43  H   UNL     1     -21.586 -12.040 -36.174  1.00  0.00     0.159 HD
ENDBRANCH  36  41
ENDBRANCH  25  27
ENDBRANCH   9  25
TORSDOF 6
ENDMDL
MODEL 7
REMARK VINA RESULT:    -9.500      4.674      8.501
REMARK INTER + INTRA:         -13.202
REMARK INTER:                 -12.246
REMARK INTRA:                  -0.957
REMARK UNBOUND:                -0.926
REMARK SMILES Nc1nc(N)c2cc(Nc3nc(Nc4cc5cn[nH]c5cc4F)nc4cc(F)ccc34)c(F)cc2n1
REMARK SMILES IDX 12 1 24 2 25 3 26 4 27 5 29 6 30 7 31 8 10 9 11 10 28 11
REMARK SMILES IDX 13 12 14 14 15 15 22 16 16 17 21 18 20 19 17 20 19 21 18 22
REMARK SMILES IDX 23 23 9 25 8 27 7 28 32 29 6 30 34 31 35 32 4 33 36 34 3 35
REMARK SMILES IDX 2 36 33 37 5 38 1 41
REMARK H PARENT 13 13 19 24 9 26 5 39 5 40 1 42 1 43
ROOT
ATOM      1  C   UNL     1     -21.032  -4.682 -27.089  1.00  0.00     0.229 A 
ATOM      2  N   UNL     1     -20.490  -4.798 -28.304  1.00  0.00    -0.212 NA
ATOM      3  C   UNL     1     -21.253  -4.551 -29.371  1.00  0.00     0.081 A 
ATOM      4  C   UNL     1     -20.687  -4.684 -30.631  1.00  0.00     0.068 A 
ATOM      5  C   UNL     1     -21.435  -4.456 -31.778  1.00  0.00     0.125 A 
ATOM      6  C   UNL     1     -22.767  -4.088 -31.702  1.00  0.00     0.040 A 
ATOM      7  C   UNL     1     -23.350  -3.944 -30.451  1.00  0.00     0.017 A 
ATOM      8  C   UNL     1     -22.593  -4.169 -29.269  1.00  0.00     0.043 A 
ATOM      9  C   UNL     1     -23.075  -4.055 -27.956  1.00  0.00     0.144 A 
ATOM     10  N   UNL     1     -22.302  -4.322 -26.887  1.00  0.00    -0.195 NA
ATOM     11  F   UNL     1     -20.862  -4.608 -32.978  1.00  0.00    -0.207 F 
ENDROOT
BRANCH   1  12
ATOM     12  N   UNL     1     -20.291  -4.920 -25.940  1.00  0.00    -0.322 N 
ATOM     13  H   UNL     1     -20.682  -4.407 -25.160  1.00  0.00     0.170 HD
BRANCH  12  14
ATOM     14  C   UNL     1     -19.160  -5.698 -25.653  1.00  0.00     0.078 A 
ATOM     15  C   UNL     1     -19.177  -7.097 -25.567  1.00  0.00     0.041 A 
ATOM     16  C   UNL     1     -17.932  -5.040 -25.453  1.00  0.00     0.148 A 
ATOM     17  C   UNL     1     -17.990  -7.800 -25.278  1.00  0.00     0.022 A 
ATOM     18  C   UNL     1     -16.737  -5.707 -25.167  1.00  0.00     0.069 A 
ATOM     19  C   UNL     1     -16.808  -7.097 -25.087  1.00  0.00     0.068 A 
ATOM     20  C   UNL     1     -17.625  -9.154 -25.109  1.00  0.00     0.143 A 
ATOM     21  N   UNL     1     -15.858  -8.050 -24.828  1.00  0.00    -0.278 N 
ATOM     22  N   UNL     1     -16.329  -9.309 -24.837  1.00  0.00    -0.183 NA
ATOM     23  F   UNL     1     -17.897  -3.700 -25.538  1.00  0.00    -0.205 F 
ATOM     24  H   UNL     1     -14.872  -7.910 -24.640  1.00  0.00     0.190 HD
ENDBRANCH  12  14
ENDBRANCH   1  12
BRANCH   9  25
ATOM     25  N   UNL     1     -24.421  -3.666 -27.755  1.00  0.00    -0.337 N 
ATOM     26  H   UNL     1     -24.509  -2.652 -27.795  1.00  0.00     0.168 HD
BRANCH  25  27
ATOM     27  C   UNL     1     -25.388  -4.215 -26.889  1.00  0.00     0.077 A 
ATOM     28  C   UNL     1     -26.410  -5.062 -27.312  1.00  0.00     0.043 A 
ATOM     29  C   UNL     1     -25.419  -3.790 -25.556  1.00  0.00     0.148 A 
ATOM     30  C   UNL     1     -27.426  -5.490 -26.419  1.00  0.00     0.045 A 
ATOM     31  C   UNL     1     -26.407  -4.215 -24.671  1.00  0.00     0.070 A 
ATOM     32  C   UNL     1     -27.420  -5.061 -25.088  1.00  0.00     0.081 A 
ATOM     33  C   UNL     1     -28.493  -6.330 -26.756  1.00  0.00     0.137 A 
ATOM     34  N   UNL     1     -28.360  -5.422 -24.209  1.00  0.00    -0.213 NA
ATOM     35  N   UNL     1     -29.433  -6.711 -25.878  1.00  0.00    -0.196 NA
ATOM     36  C   UNL     1     -29.319  -6.248 -24.635  1.00  0.00     0.222 A 
ATOM     37  F   UNL     1     -24.470  -2.954 -25.112  1.00  0.00    -0.205 F 
BRANCH  33  38
ATOM     38  N   UNL     1     -28.643  -6.851 -28.046  1.00  0.00    -0.383 N 
ATOM     39  H   UNL     1     -27.845  -6.532 -28.594  1.00  0.00     0.158 HD
ATOM     40  H   UNL     1     -28.716  -7.863 -28.039  1.00  0.00     0.158 HD
ENDBRANCH  33  38
BRANCH  36  41
ATOM     41  N   UNL     1     -30.304  -6.590 -23.735  1.00  0.00    -0.368 N 
ATOM     42  H   UNL     1     -30.048  -7.432 -23.241  1.00  0.00     0.159 HD
ATOM     43  H   UNL     1     -30.570  -5.786 -23.194  1.00  0.00     0.159 HD
ENDBRANCH  36  41
ENDBRANCH  25  27
ENDBRANCH   9  25
TORSDOF 6
ENDMDL
MODEL 8
REMARK VINA RESULT:    -9.408      3.737      7.745
REMARK INTER + INTRA:         -13.084
REMARK INTER:                 -11.977
REMARK INTRA:                  -1.107
REMARK UNBOUND:                -0.926
REMARK SMILES Nc1nc(N)c2cc(Nc3nc(Nc4cc5cn[nH]c5cc4F)nc4cc(F)ccc34)c(F)cc2n1
REMARK SMILES IDX 12 1 24 2 25 3 26 4 27 5 29 6 30 7 31 8 10 9 11 10 28 11
REMARK SMILES IDX 13 12 14 14 15 15 22 16 16 17 21 18 20 19 17 20 19 21 18 22
REMARK SMILES IDX 23 23 9 25 8 27 7 28 32 29 6 30 34 31 35 32 4 33 36 34 3 35
REMARK SMILES IDX 2 36 33 37 5 38 1 41
REMARK H PARENT 13 13 19 24 9 26 5 39 5 40 1 42 1 43
ROOT
ATOM      1  C   UNL     1     -20.060  -6.349 -29.138  1.00  0.00     0.229 A 
ATOM      2  N   UNL     1     -18.910  -6.906 -28.752  1.00  0.00    -0.212 NA
ATOM      3  C   UNL     1     -18.861  -7.515 -27.566  1.00  0.00     0.081 A 
ATOM      4  C   UNL     1     -17.660  -8.082 -27.166  1.00  0.00     0.068 A 
ATOM      5  C   UNL     1     -17.542  -8.715 -25.935  1.00  0.00     0.125 A 
ATOM      6  C   UNL     1     -18.619  -8.802 -25.070  1.00  0.00     0.040 A 
ATOM      7  C   UNL     1     -19.832  -8.245 -25.454  1.00  0.00     0.017 A 
ATOM      8  C   UNL     1     -19.965  -7.600 -26.714  1.00  0.00     0.043 A 
ATOM      9  C   UNL     1     -21.136  -7.004 -27.206  1.00  0.00     0.144 A 
ATOM     10  N   UNL     1     -21.172  -6.378 -28.397  1.00  0.00    -0.195 NA
ATOM     11  F   UNL     1     -16.365  -9.238 -25.574  1.00  0.00    -0.207 F 
ENDROOT
BRANCH   1  12
ATOM     12  N   UNL     1     -20.179  -5.706 -30.362  1.00  0.00    -0.322 N 
ATOM     13  H   UNL     1     -19.366  -5.894 -30.936  1.00  0.00     0.170 HD
BRANCH  12  14
ATOM     14  C   UNL     1     -21.156  -4.886 -30.943  1.00  0.00     0.078 A 
ATOM     15  C   UNL     1     -21.838  -3.875 -30.251  1.00  0.00     0.041 A 
ATOM     16  C   UNL     1     -21.463  -5.075 -32.303  1.00  0.00     0.148 A 
ATOM     17  C   UNL     1     -22.804  -3.092 -30.915  1.00  0.00     0.022 A 
ATOM     18  C   UNL     1     -22.413  -4.315 -32.992  1.00  0.00     0.069 A 
ATOM     19  C   UNL     1     -23.067  -3.327 -32.259  1.00  0.00     0.068 A 
ATOM     20  C   UNL     1     -23.667  -2.031 -30.568  1.00  0.00     0.143 A 
ATOM     21  N   UNL     1     -24.035  -2.419 -32.601  1.00  0.00    -0.278 N 
ATOM     22  N   UNL     1     -24.416  -1.618 -31.590  1.00  0.00    -0.183 NA
ATOM     23  F   UNL     1     -20.815  -6.035 -32.983  1.00  0.00    -0.205 F 
ATOM     24  H   UNL     1     -24.475  -2.291 -33.504  1.00  0.00     0.190 HD
ENDBRANCH  12  14
ENDBRANCH   1  12
BRANCH   9  25
ATOM     25  N   UNL     1     -22.309  -7.047 -26.414  1.00  0.00    -0.337 N 
ATOM     26  H   UNL     1     -22.601  -8.011 -26.262  1.00  0.00     0.168 HD
BRANCH  25  27
ATOM     27  C   UNL     1     -23.424  -6.185 -26.423  1.00  0.00     0.077 A 
ATOM     28  C   UNL     1     -24.705  -6.586 -26.799  1.00  0.00     0.043 A 
ATOM     29  C   UNL     1     -23.226  -4.823 -26.176  1.00  0.00     0.148 A 
ATOM     30  C   UNL     1     -25.765  -5.650 -26.903  1.00  0.00     0.045 A 
ATOM     31  C   UNL     1     -24.265  -3.900 -26.267  1.00  0.00     0.070 A 
ATOM     32  C   UNL     1     -25.539  -4.296 -26.634  1.00  0.00     0.081 A 
ATOM     33  C   UNL     1     -27.077  -5.957 -27.282  1.00  0.00     0.137 A 
ATOM     34  N   UNL     1     -26.499  -3.370 -26.732  1.00  0.00    -0.213 NA
ATOM     35  N   UNL     1     -28.051  -5.039 -27.367  1.00  0.00    -0.196 NA
ATOM     36  C   UNL     1     -27.721  -3.783 -27.076  1.00  0.00     0.222 A 
ATOM     37  F   UNL     1     -22.004  -4.388 -25.836  1.00  0.00    -0.205 F 
BRANCH  33  38
ATOM     38  N   UNL     1     -27.471  -7.266 -27.581  1.00  0.00    -0.383 N 
ATOM     39  H   UNL     1     -27.696  -7.293 -28.575  1.00  0.00     0.158 HD
ATOM     40  H   UNL     1     -26.754  -7.942 -27.338  1.00  0.00     0.158 HD
ENDBRANCH  33  38
BRANCH  36  41
ATOM     41  N   UNL     1     -28.697  -2.820 -27.209  1.00  0.00    -0.368 N 
ATOM     42  H   UNL     1     -28.306  -1.902 -27.057  1.00  0.00     0.159 HD
ATOM     43  H   UNL     1     -29.223  -2.977 -28.050  1.00  0.00     0.159 HD
ENDBRANCH  36  41
ENDBRANCH  25  27
ENDBRANCH   9  25
TORSDOF 6
ENDMDL
MODEL 9
REMARK VINA RESULT:    -9.373      4.390      6.527
REMARK INTER + INTRA:         -13.038
REMARK INTER:                 -11.866
REMARK INTRA:                  -1.172
REMARK UNBOUND:                -0.926
REMARK SMILES Nc1nc(N)c2cc(Nc3nc(Nc4cc5cn[nH]c5cc4F)nc4cc(F)ccc34)c(F)cc2n1
REMARK SMILES IDX 12 1 24 2 25 3 26 4 27 5 29 6 30 7 31 8 10 9 11 10 28 11
REMARK SMILES IDX 13 12 14 14 15 15 22 16 16 17 21 18 20 19 17 20 19 21 18 22
REMARK SMILES IDX 23 23 9 25 8 27 7 28 32 29 6 30 34 31 35 32 4 33 36 34 3 35
REMARK SMILES IDX 2 36 33 37 5 38 1 41
REMARK H PARENT 13 13 19 24 9 26 5 39 5 40 1 42 1 43
ROOT
ATOM      1  C   UNL     1     -21.288  -5.750 -29.051  1.00  0.00     0.229 A 
ATOM      2  N   UNL     1     -20.138  -6.150 -28.502  1.00  0.00    -0.212 NA
ATOM      3  C   UNL     1     -19.825  -5.710 -27.282  1.00  0.00     0.081 A 
ATOM      4  C   UNL     1     -18.624  -6.120 -26.722  1.00  0.00     0.068 A 
ATOM      5  C   UNL     1     -18.236  -5.683 -25.462  1.00  0.00     0.125 A 
ATOM      6  C   UNL     1     -19.035  -4.826 -24.725  1.00  0.00     0.040 A 
ATOM      7  C   UNL     1     -20.243  -4.408 -25.266  1.00  0.00     0.017 A 
ATOM      8  C   UNL     1     -20.654  -4.854 -26.552  1.00  0.00     0.043 A 
ATOM      9  C   UNL     1     -21.848  -4.499 -27.196  1.00  0.00     0.144 A 
ATOM     10  N   UNL     1     -22.149  -4.935 -28.433  1.00  0.00    -0.195 NA
ATOM     11  F   UNL     1     -17.064  -6.086 -24.959  1.00  0.00    -0.207 F 
ENDROOT
BRANCH   1  12
ATOM     12  N   UNL     1     -21.674  -6.176 -30.314  1.00  0.00    -0.322 N 
ATOM     13  H   UNL     1     -22.316  -6.956 -30.239  1.00  0.00     0.170 HD
BRANCH  12  14
ATOM     14  C   UNL     1     -21.372  -5.759 -31.618  1.00  0.00     0.078 A 
ATOM     15  C   UNL     1     -20.414  -6.380 -32.433  1.00  0.00     0.041 A 
ATOM     16  C   UNL     1     -22.079  -4.666 -32.150  1.00  0.00     0.148 A 
ATOM     17  C   UNL     1     -20.177  -5.899 -33.736  1.00  0.00     0.022 A 
ATOM     18  C   UNL     1     -21.870  -4.165 -33.438  1.00  0.00     0.069 A 
ATOM     19  C   UNL     1     -20.905  -4.813 -34.206  1.00  0.00     0.068 A 
ATOM     20  C   UNL     1     -19.325  -6.241 -34.808  1.00  0.00     0.143 A 
ATOM     21  N   UNL     1     -20.447  -4.596 -35.480  1.00  0.00    -0.278 N 
ATOM     22  N   UNL     1     -19.487  -5.452 -35.870  1.00  0.00    -0.183 NA
ATOM     23  F   UNL     1     -23.005  -4.063 -31.385  1.00  0.00    -0.205 F 
ATOM     24  H   UNL     1     -20.748  -3.884 -36.136  1.00  0.00     0.190 HD
ENDBRANCH  12  14
ENDBRANCH   1  12
BRANCH   9  25
ATOM     25  N   UNL     1     -22.754  -3.640 -26.528  1.00  0.00    -0.337 N 
ATOM     26  H   UNL     1     -22.250  -2.955 -25.969  1.00  0.00     0.168 HD
BRANCH  25  27
ATOM     27  C   UNL     1     -24.000  -3.941 -25.941  1.00  0.00     0.077 A 
ATOM     28  C   UNL     1     -24.156  -4.291 -24.601  1.00  0.00     0.043 A 
ATOM     29  C   UNL     1     -25.130  -4.028 -26.761  1.00  0.00     0.148 A 
ATOM     30  C   UNL     1     -25.416  -4.699 -24.091  1.00  0.00     0.045 A 
ATOM     31  C   UNL     1     -26.371  -4.416 -26.265  1.00  0.00     0.070 A 
ATOM     32  C   UNL     1     -26.530  -4.760 -24.933  1.00  0.00     0.081 A 
ATOM     33  C   UNL     1     -25.664  -5.078 -22.767  1.00  0.00     0.137 A 
ATOM     34  N   UNL     1     -27.736  -5.151 -24.508  1.00  0.00    -0.213 NA
ATOM     35  N   UNL     1     -26.873  -5.457 -22.326  1.00  0.00    -0.196 NA
ATOM     36  C   UNL     1     -27.863  -5.465 -23.217  1.00  0.00     0.222 A 
ATOM     37  F   UNL     1     -25.021  -3.723 -28.062  1.00  0.00    -0.205 F 
BRANCH  33  38
ATOM     38  N   UNL     1     -24.657  -5.068 -21.796  1.00  0.00    -0.383 N 
ATOM     39  H   UNL     1     -25.105  -5.238 -20.896  1.00  0.00     0.158 HD
ATOM     40  H   UNL     1     -23.934  -5.752 -21.993  1.00  0.00     0.158 HD
ENDBRANCH  33  38
BRANCH  36  41
ATOM     41  N   UNL     1     -29.098  -5.900 -22.792  1.00  0.00    -0.368 N 
ATOM     42  H   UNL     1     -29.540  -6.454 -23.511  1.00  0.00     0.159 HD
ATOM     43  H   UNL     1     -29.027  -6.292 -21.870  1.00  0.00     0.159 HD
ENDBRANCH  36  41
ENDBRANCH  25  27
ENDBRANCH   9  25
TORSDOF 6
ENDMDL
MODEL 10
REMARK VINA RESULT:    -9.286      4.089      7.618
REMARK INTER + INTRA:         -12.927
REMARK INTER:                 -11.792
REMARK INTRA:                  -1.135
REMARK UNBOUND:                -0.926
REMARK SMILES Nc1nc(N)c2cc(Nc3nc(Nc4cc5cn[nH]c5cc4F)nc4cc(F)ccc34)c(F)cc2n1
REMARK SMILES IDX 12 1 24 2 25 3 26 4 27 5 29 6 30 7 31 8 10 9 11 10 28 11
REMARK SMILES IDX 13 12 14 14 15 15 22 16 16 17 21 18 20 19 17 20 19 21 18 22
REMARK SMILES IDX 23 23 9 25 8 27 7 28 32 29 6 30 34 31 35 32 4 33 36 34 3 35
REMARK SMILES IDX 2 36 33 37 5 38 1 41
REMARK H PARENT 13 13 19 24 9 26 5 39 5 40 1 42 1 43
ROOT
ATOM      1  C   UNL     1     -23.512  -3.816 -27.532  1.00  0.00     0.229 A 
ATOM      2  N   UNL     1     -23.775  -3.948 -28.835  1.00  0.00    -0.212 NA
ATOM      3  C   UNL     1     -22.767  -4.216 -29.667  1.00  0.00     0.081 A 
ATOM      4  C   UNL     1     -23.046  -4.341 -31.020  1.00  0.00     0.068 A 
ATOM      5  C   UNL     1     -22.036  -4.603 -31.937  1.00  0.00     0.125 A 
ATOM      6  C   UNL     1     -20.722  -4.750 -31.530  1.00  0.00     0.040 A 
ATOM      7  C   UNL     1     -20.423  -4.634 -30.179  1.00  0.00     0.017 A 
ATOM      8  C   UNL     1     -21.449  -4.371 -29.231  1.00  0.00     0.043 A 
ATOM      9  C   UNL     1     -21.266  -4.234 -27.847  1.00  0.00     0.144 A 
ATOM     10  N   UNL     1     -22.286  -3.948 -27.017  1.00  0.00    -0.195 NA
ATOM     11  F   UNL     1     -22.338  -4.703 -33.236  1.00  0.00    -0.207 F 
ENDROOT
BRANCH   1  12
ATOM     12  N   UNL     1     -24.517  -3.542 -26.615  1.00  0.00    -0.322 N 
ATOM     13  H   UNL     1     -24.297  -2.700 -26.097  1.00  0.00     0.170 HD
BRANCH  12  14
ATOM     14  C   UNL     1     -25.725  -4.167 -26.276  1.00  0.00     0.078 A 
ATOM     15  C   UNL     1     -26.887  -4.092 -27.057  1.00  0.00     0.041 A 
ATOM     16  C   UNL     1     -25.774  -4.928 -25.093  1.00  0.00     0.148 A 
ATOM     17  C   UNL     1     -28.059  -4.757 -26.643  1.00  0.00     0.022 A 
ATOM     18  C   UNL     1     -26.918  -5.601 -24.656  1.00  0.00     0.069 A 
ATOM     19  C   UNL     1     -28.049  -5.491 -25.464  1.00  0.00     0.068 A 
ATOM     20  C   UNL     1     -29.374  -4.904 -27.137  1.00  0.00     0.143 A 
ATOM     21  N   UNL     1     -29.314  -6.003 -25.346  1.00  0.00    -0.278 N 
ATOM     22  N   UNL     1     -30.139  -5.662 -26.351  1.00  0.00    -0.183 NA
ATOM     23  F   UNL     1     -24.667  -5.015 -24.337  1.00  0.00    -0.205 F 
ATOM     24  H   UNL     1     -29.680  -6.593 -24.608  1.00  0.00     0.190 HD
ENDBRANCH  12  14
ENDBRANCH   1  12
BRANCH   9  25
ATOM     25  N   UNL     1     -19.963  -4.382 -27.313  1.00  0.00    -0.337 N 
ATOM     26  H   UNL     1     -19.282  -3.896 -27.893  1.00  0.00     0.168 HD
BRANCH  25  27
ATOM     27  C   UNL     1     -19.376  -5.503 -26.692  1.00  0.00     0.077 A 
ATOM     28  C   UNL     1     -20.038  -6.716 -26.507  1.00  0.00     0.043 A 
ATOM     29  C   UNL     1     -18.114  -5.366 -26.106  1.00  0.00     0.148 A 
ATOM     30  C   UNL     1     -19.441  -7.772 -25.771  1.00  0.00     0.045 A 
ATOM     31  C   UNL     1     -17.518  -6.402 -25.391  1.00  0.00     0.070 A 
ATOM     32  C   UNL     1     -18.170  -7.610 -25.210  1.00  0.00     0.081 A 
ATOM     33  C   UNL     1     -20.032  -9.017 -25.526  1.00  0.00     0.137 A 
ATOM     34  N   UNL     1     -17.569  -8.567 -24.496  1.00  0.00    -0.213 NA
ATOM     35  N   UNL     1     -19.431  -9.989 -24.824  1.00  0.00    -0.196 NA
ATOM     36  C   UNL     1     -18.216  -9.725 -24.348  1.00  0.00     0.222 A 
ATOM     37  F   UNL     1     -17.451  -4.208 -26.237  1.00  0.00    -0.205 F 
BRANCH  33  38
ATOM     38  N   UNL     1     -21.299  -9.342 -26.020  1.00  0.00    -0.383 N 
ATOM     39  H   UNL     1     -21.834  -9.734 -25.245  1.00  0.00     0.158 HD
ATOM     40  H   UNL     1     -21.764  -8.538 -26.430  1.00  0.00     0.158 HD
ENDBRANCH  33  38
BRANCH  36  41
ATOM     41  N   UNL     1     -17.607 -10.694 -23.582  1.00  0.00    -0.368 N 
ATOM     42  H   UNL     1     -16.922 -10.276 -22.969  1.00  0.00     0.159 HD
ATOM     43  H   UNL     1     -18.299 -11.298 -23.176  1.00  0.00     0.159 HD
ENDBRANCH  36  41
ENDBRANCH  25  27
ENDBRANCH   9  25
TORSDOF 6
ENDMDL
MODEL 11
REMARK VINA RESULT:    -9.131      3.992      6.192
REMARK INTER + INTRA:         -12.725
REMARK INTER:                 -11.677
REMARK INTRA:                  -1.049
REMARK UNBOUND:                -0.926
REMARK SMILES Nc1nc(N)c2cc(Nc3nc(Nc4cc5cn[nH]c5cc4F)nc4cc(F)ccc34)c(F)cc2n1
REMARK SMILES IDX 12 1 24 2 25 3 26 4 27 5 29 6 30 7 31 8 10 9 11 10 28 11
REMARK SMILES IDX 13 12 14 14 15 15 22 16 16 17 21 18 20 19 17 20 19 21 18 22
REMARK SMILES IDX 23 23 9 25 8 27 7 28 32 29 6 30 34 31 35 32 4 33 36 34 3 35
REMARK SMILES IDX 2 36 33 37 5 38 1 41
REMARK H PARENT 13 13 19 24 9 26 5 39 5 40 1 42 1 43
ROOT
ATOM      1  C   UNL     1     -20.365  -6.722 -29.396  1.00  0.00     0.229 A 
ATOM      2  N   UNL     1     -19.294  -6.993 -28.646  1.00  0.00    -0.212 NA
ATOM      3  C   UNL     1     -19.117  -6.309 -27.514  1.00  0.00     0.081 A 
ATOM      4  C   UNL     1     -17.997  -6.588 -26.745  1.00  0.00     0.068 A 
ATOM      5  C   UNL     1     -17.749  -5.899 -25.565  1.00  0.00     0.125 A 
ATOM      6  C   UNL     1     -18.613  -4.914 -25.118  1.00  0.00     0.040 A 
ATOM      7  C   UNL     1     -19.743  -4.624 -25.870  1.00  0.00     0.017 A 
ATOM      8  C   UNL     1     -20.009  -5.327 -27.077  1.00  0.00     0.043 A 
ATOM      9  C   UNL     1     -21.114  -5.119 -27.915  1.00  0.00     0.144 A 
ATOM     10  N   UNL     1     -21.277  -5.802 -29.064  1.00  0.00    -0.195 NA
ATOM     11  F   UNL     1     -16.651  -6.183 -24.855  1.00  0.00    -0.207 F 
ENDROOT
BRANCH   1  12
ATOM     12  N   UNL     1     -20.610  -7.400 -30.581  1.00  0.00    -0.322 N 
ATOM     13  H   UNL     1     -21.017  -8.307 -30.387  1.00  0.00     0.170 HD
BRANCH  12  14
ATOM     14  C   UNL     1     -20.420  -7.096 -31.937  1.00  0.00     0.078 A 
ATOM     15  C   UNL     1     -20.609  -5.818 -32.483  1.00  0.00     0.041 A 
ATOM     16  C   UNL     1     -20.000  -8.125 -32.799  1.00  0.00     0.148 A 
ATOM     17  C   UNL     1     -20.389  -5.599 -33.858  1.00  0.00     0.022 A 
ATOM     18  C   UNL     1     -19.772  -7.942 -34.166  1.00  0.00     0.069 A 
ATOM     19  C   UNL     1     -19.978  -6.656 -34.661  1.00  0.00     0.068 A 
ATOM     20  C   UNL     1     -20.477  -4.501 -34.741  1.00  0.00     0.143 A 
ATOM     21  N   UNL     1     -19.857  -6.126 -35.919  1.00  0.00    -0.278 N 
ATOM     22  N   UNL     1     -20.153  -4.817 -35.994  1.00  0.00    -0.183 NA
ATOM     23  F   UNL     1     -19.808  -9.354 -32.290  1.00  0.00    -0.205 F 
ATOM     24  H   UNL     1     -19.573  -6.601 -36.769  1.00  0.00     0.190 HD
ENDBRANCH  12  14
ENDBRANCH   1  12
BRANCH   9  25
ATOM     25  N   UNL     1     -22.076  -4.147 -27.549  1.00  0.00    -0.337 N 
ATOM     26  H   UNL     1     -21.619  -3.307 -27.201  1.00  0.00     0.168 HD
BRANCH  25  27
ATOM     27  C   UNL     1     -23.331  -4.323 -26.931  1.00  0.00     0.077 A 
ATOM     28  C   UNL     1     -23.537  -4.201 -25.557  1.00  0.00     0.043 A 
ATOM     29  C   UNL     1     -24.406  -4.774 -27.702  1.00  0.00     0.148 A 
ATOM     30  C   UNL     1     -24.795  -4.504 -24.975  1.00  0.00     0.045 A 
ATOM     31  C   UNL     1     -25.646  -5.063 -27.139  1.00  0.00     0.070 A 
ATOM     32  C   UNL     1     -25.855  -4.938 -25.776  1.00  0.00     0.081 A 
ATOM     33  C   UNL     1     -25.090  -4.422 -23.610  1.00  0.00     0.137 A 
ATOM     34  N   UNL     1     -27.056  -5.251 -25.277  1.00  0.00    -0.213 NA
ATOM     35  N   UNL     1     -26.295  -4.718 -23.100  1.00  0.00    -0.196 NA
ATOM     36  C   UNL     1     -27.233  -5.110 -23.961  1.00  0.00     0.222 A 
ATOM     37  F   UNL     1     -24.246  -4.929 -29.024  1.00  0.00    -0.205 F 
BRANCH  33  38
ATOM     38  N   UNL     1     -24.140  -4.000 -22.673  1.00  0.00    -0.383 N 
ATOM     39  H   UNL     1     -23.288  -4.533 -22.848  1.00  0.00     0.158 HD
ATOM     40  H   UNL     1     -23.977  -3.000 -22.723  1.00  0.00     0.158 HD
ENDBRANCH  33  38
BRANCH  36  41
ATOM     41  N   UNL     1     -28.460  -5.466 -23.448  1.00  0.00    -0.368 N 
ATOM     42  H   UNL     1     -29.136  -5.558 -24.192  1.00  0.00     0.159 HD
ATOM     43  H   UNL     1     -28.356  -6.231 -22.806  1.00  0.00     0.159 HD
ENDBRANCH  36  41
ENDBRANCH  25  27
ENDBRANCH   9  25
TORSDOF 6
ENDMDL
MODEL 12
REMARK VINA RESULT:    -9.028      2.794      8.846
REMARK INTER + INTRA:         -12.592
REMARK INTER:                 -11.417
REMARK INTRA:                  -1.176
REMARK UNBOUND:                -0.926
REMARK SMILES Nc1nc(N)c2cc(Nc3nc(Nc4cc5cn[nH]c5cc4F)nc4cc(F)ccc34)c(F)cc2n1
REMARK SMILES IDX 12 1 24 2 25 3 26 4 27 5 29 6 30 7 31 8 10 9 11 10 28 11
REMARK SMILES IDX 13 12 14 14 15 15 22 16 16 17 21 18 20 19 17 20 19 21 18 22
REMARK SMILES IDX 23 23 9 25 8 27 7 28 32 29 6 30 34 31 35 32 4 33 36 34 3 35
REMARK SMILES IDX 2 36 33 37 5 38 1 41
REMARK H PARENT 13 13 19 24 9 26 5 39 5 40 1 42 1 43
ROOT
ATOM      1  C   UNL     1     -19.982  -8.805 -29.041  1.00  0.00     0.229 A 
ATOM      2  N   UNL     1     -20.070 -10.066 -29.472  1.00  0.00    -0.212 NA
ATOM      3  C   UNL     1     -20.080 -10.292 -30.787  1.00  0.00     0.081 A 
ATOM      4  C   UNL     1     -20.183 -11.604 -31.229  1.00  0.00     0.068 A 
ATOM      5  C   UNL     1     -20.216 -11.902 -32.584  1.00  0.00     0.125 A 
ATOM      6  C   UNL     1     -20.145 -10.901 -33.538  1.00  0.00     0.040 A 
ATOM      7  C   UNL     1     -20.037  -9.582 -33.117  1.00  0.00     0.017 A 
ATOM      8  C   UNL     1     -19.996  -9.266 -31.732  1.00  0.00     0.043 A 
ATOM      9  C   UNL     1     -19.890  -7.976 -31.192  1.00  0.00     0.144 A 
ATOM     10  N   UNL     1     -19.895  -7.755 -29.864  1.00  0.00    -0.195 NA
ATOM     11  F   UNL     1     -20.330 -13.176 -32.975  1.00  0.00    -0.207 F 
ENDROOT
BRANCH   1  12
ATOM     12  N   UNL     1     -19.961  -8.502 -27.687  1.00  0.00    -0.322 N 
ATOM     13  H   UNL     1     -20.309  -9.286 -27.148  1.00  0.00     0.170 HD
BRANCH  12  14
ATOM     14  C   UNL     1     -19.568  -7.380 -26.944  1.00  0.00     0.078 A 
ATOM     15  C   UNL     1     -18.238  -7.103 -26.595  1.00  0.00     0.041 A 
ATOM     16  C   UNL     1     -20.559  -6.469 -26.537  1.00  0.00     0.148 A 
ATOM     17  C   UNL     1     -17.931  -5.947 -25.850  1.00  0.00     0.022 A 
ATOM     18  C   UNL     1     -20.289  -5.313 -25.800  1.00  0.00     0.069 A 
ATOM     19  C   UNL     1     -18.953  -5.085 -25.473  1.00  0.00     0.068 A 
ATOM     20  C   UNL     1     -16.762  -5.356 -25.324  1.00  0.00     0.143 A 
ATOM     21  N   UNL     1     -18.338  -4.079 -24.774  1.00  0.00    -0.278 N 
ATOM     22  N   UNL     1     -17.005  -4.220 -24.671  1.00  0.00    -0.183 NA
ATOM     23  F   UNL     1     -21.838  -6.716 -26.869  1.00  0.00    -0.205 F 
ATOM     24  H   UNL     1     -18.768  -3.267 -24.346  1.00  0.00     0.190 HD
ENDBRANCH  12  14
ENDBRANCH   1  12
BRANCH   9  25
ATOM     25  N   UNL     1     -19.792  -6.873 -32.074  1.00  0.00    -0.337 N 
ATOM     26  H   UNL     1     -18.818  -6.606 -32.204  1.00  0.00     0.168 HD
BRANCH  25  27
ATOM     27  C   UNL     1     -20.636  -5.750 -32.195  1.00  0.00     0.077 A 
ATOM     28  C   UNL     1     -21.082  -5.001 -31.107  1.00  0.00     0.043 A 
ATOM     29  C   UNL     1     -21.171  -5.439 -33.449  1.00  0.00     0.148 A 
ATOM     30  C   UNL     1     -22.024  -3.953 -31.276  1.00  0.00     0.045 A 
ATOM     31  C   UNL     1     -22.088  -4.406 -33.623  1.00  0.00     0.070 A 
ATOM     32  C   UNL     1     -22.528  -3.657 -32.546  1.00  0.00     0.081 A 
ATOM     33  C   UNL     1     -22.536  -3.157 -30.245  1.00  0.00     0.137 A 
ATOM     34  N   UNL     1     -23.428  -2.691 -32.758  1.00  0.00    -0.213 NA
ATOM     35  N   UNL     1     -23.427  -2.175 -30.449  1.00  0.00    -0.196 NA
ATOM     36  C   UNL     1     -23.826  -1.976 -31.703  1.00  0.00     0.222 A 
ATOM     37  F   UNL     1     -20.789  -6.150 -34.520  1.00  0.00    -0.205 F 
BRANCH  33  38
ATOM     38  N   UNL     1     -22.131  -3.322 -28.916  1.00  0.00    -0.383 N 
ATOM     39  H   UNL     1     -21.233  -3.805 -28.931  1.00  0.00     0.158 HD
ATOM     40  H   UNL     1     -22.074  -2.436 -28.425  1.00  0.00     0.158 HD
ENDBRANCH  33  38
BRANCH  36  41
ATOM     41  N   UNL     1     -24.779  -1.005 -31.921  1.00  0.00    -0.368 N 
ATOM     42  H   UNL     1     -25.141  -0.668 -31.042  1.00  0.00     0.159 HD
ATOM     43  H   UNL     1     -24.438  -0.331 -32.583  1.00  0.00     0.159 HD
ENDBRANCH  36  41
ENDBRANCH  25  27
ENDBRANCH   9  25
TORSDOF 6
ENDMDL
MODEL 13
REMARK VINA RESULT:    -9.011      3.705      9.342
REMARK INTER + INTRA:         -12.571
REMARK INTER:                 -11.430
REMARK INTRA:                  -1.141
REMARK UNBOUND:                -0.926
REMARK SMILES Nc1nc(N)c2cc(Nc3nc(Nc4cc5cn[nH]c5cc4F)nc4cc(F)ccc34)c(F)cc2n1
REMARK SMILES IDX 12 1 24 2 25 3 26 4 27 5 29 6 30 7 31 8 10 9 11 10 28 11
REMARK SMILES IDX 13 12 14 14 15 15 22 16 16 17 21 18 20 19 17 20 19 21 18 22
REMARK SMILES IDX 23 23 9 25 8 27 7 28 32 29 6 30 34 31 35 32 4 33 36 34 3 35
REMARK SMILES IDX 2 36 33 37 5 38 1 41
REMARK H PARENT 13 13 19 24 9 26 5 39 5 40 1 42 1 43
ROOT
ATOM      1  C   UNL     1     -21.873  -4.864 -27.117  1.00  0.00     0.229 A 
ATOM      2  N   UNL     1     -20.854  -4.755 -26.261  1.00  0.00    -0.212 NA
ATOM      3  C   UNL     1     -19.816  -5.584 -26.393  1.00  0.00     0.081 A 
ATOM      4  C   UNL     1     -18.766  -5.473 -25.493  1.00  0.00     0.068 A 
ATOM      5  C   UNL     1     -17.666  -6.317 -25.570  1.00  0.00     0.125 A 
ATOM      6  C   UNL     1     -17.582  -7.294 -26.546  1.00  0.00     0.040 A 
ATOM      7  C   UNL     1     -18.620  -7.418 -27.460  1.00  0.00     0.017 A 
ATOM      8  C   UNL     1     -19.748  -6.555 -27.395  1.00  0.00     0.043 A 
ATOM      9  C   UNL     1     -20.852  -6.588 -28.260  1.00  0.00     0.144 A 
ATOM     10  N   UNL     1     -21.901  -5.759 -28.109  1.00  0.00    -0.195 NA
ATOM     11  F   UNL     1     -16.678  -6.193 -24.677  1.00  0.00    -0.207 F 
ENDROOT
BRANCH   1  12
ATOM     12  N   UNL     1     -22.978  -4.030 -27.037  1.00  0.00    -0.322 N 
ATOM     13  H   UNL     1     -22.765  -3.127 -27.443  1.00  0.00     0.170 HD
BRANCH  12  14
ATOM     14  C   UNL     1     -24.278  -4.178 -26.532  1.00  0.00     0.078 A 
ATOM     15  C   UNL     1     -25.380  -4.552 -27.313  1.00  0.00     0.041 A 
ATOM     16  C   UNL     1     -24.489  -3.956 -25.159  1.00  0.00     0.148 A 
ATOM     17  C   UNL     1     -26.653  -4.684 -26.722  1.00  0.00     0.022 A 
ATOM     18  C   UNL     1     -25.737  -4.080 -24.540  1.00  0.00     0.069 A 
ATOM     19  C   UNL     1     -26.801  -4.448 -25.361  1.00  0.00     0.068 A 
ATOM     20  C   UNL     1     -27.951  -5.021 -27.164  1.00  0.00     0.143 A 
ATOM     21  N   UNL     1     -28.131  -4.655 -25.102  1.00  0.00    -0.278 N 
ATOM     22  N   UNL     1     -28.851  -5.006 -26.181  1.00  0.00    -0.183 NA
ATOM     23  F   UNL     1     -23.442  -3.603 -24.394  1.00  0.00    -0.205 F 
ATOM     24  H   UNL     1     -28.610  -4.577 -24.212  1.00  0.00     0.190 HD
ENDBRANCH  12  14
ENDBRANCH   1  12
BRANCH   9  25
ATOM     25  N   UNL     1     -20.867  -7.536 -29.311  1.00  0.00    -0.337 N 
ATOM     26  H   UNL     1     -20.629  -8.461 -28.960  1.00  0.00     0.168 HD
BRANCH  25  27
ATOM     27  C   UNL     1     -20.450  -7.390 -30.650  1.00  0.00     0.077 A 
ATOM     28  C   UNL     1     -20.867  -6.350 -31.478  1.00  0.00     0.043 A 
ATOM     29  C   UNL     1     -19.685  -8.406 -31.233  1.00  0.00     0.148 A 
ATOM     30  C   UNL     1     -20.510  -6.317 -32.851  1.00  0.00     0.045 A 
ATOM     31  C   UNL     1     -19.323  -8.375 -32.577  1.00  0.00     0.070 A 
ATOM     32  C   UNL     1     -19.731  -7.340 -33.401  1.00  0.00     0.081 A 
ATOM     33  C   UNL     1     -20.891  -5.322 -33.758  1.00  0.00     0.137 A 
ATOM     34  N   UNL     1     -19.379  -7.365 -34.691  1.00  0.00    -0.213 NA
ATOM     35  N   UNL     1     -20.530  -5.329 -35.050  1.00  0.00    -0.196 NA
ATOM     36  C   UNL     1     -19.777  -6.349 -35.459  1.00  0.00     0.222 A 
ATOM     37  F   UNL     1     -19.282  -9.439 -30.480  1.00  0.00    -0.205 F 
BRANCH  33  38
ATOM     38  N   UNL     1     -21.667  -4.226 -33.368  1.00  0.00    -0.383 N 
ATOM     39  H   UNL     1     -22.302  -4.550 -32.638  1.00  0.00     0.158 HD
ATOM     40  H   UNL     1     -21.095  -3.449 -33.053  1.00  0.00     0.158 HD
ENDBRANCH  33  38
BRANCH  36  41
ATOM     41  N   UNL     1     -19.441  -6.397 -36.794  1.00  0.00    -0.368 N 
ATOM     42  H   UNL     1     -19.332  -7.356 -37.092  1.00  0.00     0.159 HD
ATOM     43  H   UNL     1     -20.053  -5.804 -37.325  1.00  0.00     0.159 HD
ENDBRANCH  36  41
ENDBRANCH  25  27
ENDBRANCH   9  25
TORSDOF 6
ENDMDL
MODEL 14
REMARK VINA RESULT:    -8.904      1.891      2.256
REMARK INTER + INTRA:         -12.432
REMARK INTER:                 -11.601
REMARK INTRA:                  -0.831
REMARK UNBOUND:                -0.926
REMARK SMILES Nc1nc(N)c2cc(Nc3nc(Nc4cc5cn[nH]c5cc4F)nc4cc(F)ccc34)c(F)cc2n1
REMARK SMILES IDX 12 1 24 2 25 3 26 4 27 5 29 6 30 7 31 8 10 9 11 10 28 11
REMARK SMILES IDX 13 12 14 14 15 15 22 16 16 17 21 18 20 19 17 20 19 21 18 22
REMARK SMILES IDX 23 23 9 25 8 27 7 28 32 29 6 30 34 31 35 32 4 33 36 34 3 35
REMARK SMILES IDX 2 36 33 37 5 38 1 41
REMARK H PARENT 13 13 19 24 9 26 5 39 5 40 1 42 1 43
ROOT
ATOM      1  C   UNL     1     -20.861  -5.550 -32.281  1.00  0.00     0.229 A 
ATOM      2  N   UNL     1     -21.643  -4.644 -32.874  1.00  0.00    -0.212 NA
ATOM      3  C   UNL     1     -22.428  -3.880 -32.112  1.00  0.00     0.081 A 
ATOM      4  C   UNL     1     -23.246  -2.949 -32.735  1.00  0.00     0.068 A 
ATOM      5  C   UNL     1     -24.097  -2.137 -31.996  1.00  0.00     0.125 A 
ATOM      6  C   UNL     1     -24.155  -2.230 -30.617  1.00  0.00     0.040 A 
ATOM      7  C   UNL     1     -23.340  -3.152 -29.974  1.00  0.00     0.017 A 
ATOM      8  C   UNL     1     -22.461  -3.984 -30.719  1.00  0.00     0.043 A 
ATOM      9  C   UNL     1     -21.596  -4.948 -30.179  1.00  0.00     0.144 A 
ATOM     10  N   UNL     1     -20.819  -5.725 -30.957  1.00  0.00    -0.195 NA
ATOM     11  F   UNL     1     -24.883  -1.260 -32.630  1.00  0.00    -0.207 F 
ENDROOT
BRANCH   1  12
ATOM     12  N   UNL     1     -20.018  -6.371 -33.016  1.00  0.00    -0.322 N 
ATOM     13  H   UNL     1     -19.334  -5.813 -33.514  1.00  0.00     0.170 HD
BRANCH  12  14
ATOM     14  C   UNL     1     -19.922  -7.757 -33.200  1.00  0.00     0.078 A 
ATOM     15  C   UNL     1     -19.669  -8.665 -32.162  1.00  0.00     0.041 A 
ATOM     16  C   UNL     1     -20.106  -8.273 -34.496  1.00  0.00     0.148 A 
ATOM     17  C   UNL     1     -19.595 -10.046 -32.435  1.00  0.00     0.022 A 
ATOM     18  C   UNL     1     -20.041  -9.636 -34.801  1.00  0.00     0.069 A 
ATOM     19  C   UNL     1     -19.782 -10.497 -33.736  1.00  0.00     0.068 A 
ATOM     20  C   UNL     1     -19.361 -11.221 -31.687  1.00  0.00     0.143 A 
ATOM     21  N   UNL     1     -19.649 -11.859 -33.669  1.00  0.00    -0.278 N 
ATOM     22  N   UNL     1     -19.394 -12.324 -32.433  1.00  0.00    -0.183 NA
ATOM     23  F   UNL     1     -20.355  -7.417 -35.501  1.00  0.00    -0.205 F 
ATOM     24  H   UNL     1     -19.724 -12.529 -34.426  1.00  0.00     0.190 HD
ENDBRANCH  12  14
ENDBRANCH   1  12
BRANCH   9  25
ATOM     25  N   UNL     1     -21.557  -5.119 -28.775  1.00  0.00    -0.337 N 
ATOM     26  H   UNL     1     -21.887  -4.279 -28.304  1.00  0.00     0.168 HD
BRANCH  25  27
ATOM     27  C   UNL     1     -20.600  -5.788 -27.984  1.00  0.00     0.077 A 
ATOM     28  C   UNL     1     -19.672  -5.132 -27.177  1.00  0.00     0.043 A 
ATOM     29  C   UNL     1     -20.473  -7.176 -28.108  1.00  0.00     0.148 A 
ATOM     30  C   UNL     1     -18.656  -5.850 -26.495  1.00  0.00     0.045 A 
ATOM     31  C   UNL     1     -19.485  -7.888 -27.433  1.00  0.00     0.070 A 
ATOM     32  C   UNL     1     -18.565  -7.239 -26.626  1.00  0.00     0.081 A 
ATOM     33  C   UNL     1     -17.678  -5.277 -25.674  1.00  0.00     0.137 A 
ATOM     34  N   UNL     1     -17.620  -7.962 -26.018  1.00  0.00    -0.213 NA
ATOM     35  N   UNL     1     -16.734  -5.994 -25.046  1.00  0.00    -0.196 NA
ATOM     36  C   UNL     1     -16.754  -7.312 -25.237  1.00  0.00     0.222 A 
ATOM     37  F   UNL     1     -21.329  -7.845 -28.893  1.00  0.00    -0.205 F 
BRANCH  33  38
ATOM     38  N   UNL     1     -17.631  -3.900 -25.434  1.00  0.00    -0.383 N 
ATOM     39  H   UNL     1     -17.663  -3.769 -24.423  1.00  0.00     0.158 HD
ATOM     40  H   UNL     1     -16.807  -3.472 -25.844  1.00  0.00     0.158 HD
ENDBRANCH  33  38
BRANCH  36  41
ATOM     41  N   UNL     1     -15.760  -8.056 -24.640  1.00  0.00    -0.368 N 
ATOM     42  H   UNL     1     -14.912  -8.006 -25.184  1.00  0.00     0.159 HD
ATOM     43  H   UNL     1     -15.708  -7.839 -23.661  1.00  0.00     0.159 HD
ENDBRANCH  36  41
ENDBRANCH  25  27
ENDBRANCH   9  25
TORSDOF 6
ENDMDL
MODEL 15
REMARK VINA RESULT:    -8.876      2.527      6.896
REMARK INTER + INTRA:         -12.396
REMARK INTER:                 -11.697
REMARK INTRA:                  -0.700
REMARK UNBOUND:                -0.926
REMARK SMILES Nc1nc(N)c2cc(Nc3nc(Nc4cc5cn[nH]c5cc4F)nc4cc(F)ccc34)c(F)cc2n1
REMARK SMILES IDX 12 1 24 2 25 3 26 4 27 5 29 6 30 7 31 8 10 9 11 10 28 11
REMARK SMILES IDX 13 12 14 14 15 15 22 16 16 17 21 18 20 19 17 20 19 21 18 22
REMARK SMILES IDX 23 23 9 25 8 27 7 28 32 29 6 30 34 31 35 32 4 33 36 34 3 35
REMARK SMILES IDX 2 36 33 37 5 38 1 41
REMARK H PARENT 13 13 19 24 9 26 5 39 5 40 1 42 1 43
ROOT
ATOM      1  C   UNL     1     -20.817  -4.314 -28.937  1.00  0.00     0.229 A 
ATOM      2  N   UNL     1     -21.673  -3.306 -29.125  1.00  0.00    -0.212 NA
ATOM      3  C   UNL     1     -22.349  -3.247 -30.274  1.00  0.00     0.081 A 
ATOM      4  C   UNL     1     -23.227  -2.191 -30.468  1.00  0.00     0.068 A 
ATOM      5  C   UNL     1     -23.947  -2.066 -31.649  1.00  0.00     0.125 A 
ATOM      6  C   UNL     1     -23.811  -2.991 -32.669  1.00  0.00     0.040 A 
ATOM      7  C   UNL     1     -22.941  -4.059 -32.493  1.00  0.00     0.017 A 
ATOM      8  C   UNL     1     -22.204  -4.200 -31.286  1.00  0.00     0.043 A 
ATOM      9  C   UNL     1     -21.299  -5.232 -30.998  1.00  0.00     0.144 A 
ATOM     10  N   UNL     1     -20.610  -5.276 -29.842  1.00  0.00    -0.195 NA
ATOM     11  F   UNL     1     -24.774  -1.027 -31.808  1.00  0.00    -0.207 F 
ENDROOT
BRANCH   1  12
ATOM     12  N   UNL     1     -20.088  -4.436 -27.763  1.00  0.00    -0.322 N 
ATOM     13  H   UNL     1     -19.823  -3.521 -27.420  1.00  0.00     0.170 HD
BRANCH  12  14
ATOM     14  C   UNL     1     -19.665  -5.524 -26.986  1.00  0.00     0.078 A 
ATOM     15  C   UNL     1     -18.358  -5.675 -26.502  1.00  0.00     0.041 A 
ATOM     16  C   UNL     1     -20.608  -6.515 -26.657  1.00  0.00     0.148 A 
ATOM     17  C   UNL     1     -18.020  -6.799 -25.721  1.00  0.00     0.022 A 
ATOM     18  C   UNL     1     -20.307  -7.640 -25.883  1.00  0.00     0.069 A 
ATOM     19  C   UNL     1     -18.993  -7.747 -25.431  1.00  0.00     0.068 A 
ATOM     20  C   UNL     1     -16.857  -7.285 -25.086  1.00  0.00     0.143 A 
ATOM     21  N   UNL     1     -18.359  -8.695 -24.671  1.00  0.00    -0.278 N 
ATOM     22  N   UNL     1     -17.059  -8.436 -24.446  1.00  0.00    -0.183 NA
ATOM     23  F   UNL     1     -21.867  -6.382 -27.107  1.00  0.00    -0.205 F 
ATOM     24  H   UNL     1     -18.754  -9.539 -24.273  1.00  0.00     0.190 HD
ENDBRANCH  12  14
ENDBRANCH   1  12
BRANCH   9  25
ATOM     25  N   UNL     1     -21.093  -6.248 -31.962  1.00  0.00    -0.337 N 
ATOM     26  H   UNL     1     -21.984  -6.576 -32.331  1.00  0.00     0.168 HD
BRANCH  25  27
ATOM     27  C   UNL     1     -20.138  -7.285 -31.976  1.00  0.00     0.077 A 
ATOM     28  C   UNL     1     -19.472  -7.734 -30.837  1.00  0.00     0.043 A 
ATOM     29  C   UNL     1     -19.727  -7.808 -33.206  1.00  0.00     0.148 A 
ATOM     30  C   UNL     1     -18.435  -8.698 -30.926  1.00  0.00     0.045 A 
ATOM     31  C   UNL     1     -18.718  -8.763 -33.300  1.00  0.00     0.070 A 
ATOM     32  C   UNL     1     -18.058  -9.215 -32.169  1.00  0.00     0.081 A 
ATOM     33  C   UNL     1     -17.706  -9.199 -29.842  1.00  0.00     0.137 A 
ATOM     34  N   UNL     1     -17.079 -10.114 -32.311  1.00  0.00    -0.213 NA
ATOM     35  N   UNL     1     -16.732 -10.113 -29.971  1.00  0.00    -0.196 NA
ATOM     36  C   UNL     1     -16.468 -10.541 -31.204  1.00  0.00     0.222 A 
ATOM     37  F   UNL     1     -20.323  -7.387 -34.331  1.00  0.00    -0.205 F 
BRANCH  33  38
ATOM     38  N   UNL     1     -17.961  -8.789 -28.529  1.00  0.00    -0.383 N 
ATOM     39  H   UNL     1     -18.929  -9.034 -28.319  1.00  0.00     0.158 HD
ATOM     40  H   UNL     1     -17.314  -9.208 -27.869  1.00  0.00     0.158 HD
ENDBRANCH  33  38
BRANCH  36  41
ATOM     41  N   UNL     1     -15.437 -11.441 -31.358  1.00  0.00    -0.368 N 
ATOM     42  H   UNL     1     -14.556 -10.953 -31.425  1.00  0.00     0.159 HD
ATOM     43  H   UNL     1     -15.520 -12.178 -30.682  1.00  0.00     0.159 HD
ENDBRANCH  36  41
ENDBRANCH  25  27
ENDBRANCH   9  25
TORSDOF 6
ENDMDL
MODEL 16
REMARK VINA RESULT:    -8.863      3.821      6.920
REMARK INTER + INTRA:         -12.380
REMARK INTER:                 -11.498
REMARK INTRA:                  -0.882
REMARK UNBOUND:                -0.926
REMARK SMILES Nc1nc(N)c2cc(Nc3nc(Nc4cc5cn[nH]c5cc4F)nc4cc(F)ccc34)c(F)cc2n1
REMARK SMILES IDX 12 1 24 2 25 3 26 4 27 5 29 6 30 7 31 8 10 9 11 10 28 11
REMARK SMILES IDX 13 12 14 14 15 15 22 16 16 17 21 18 20 19 17 20 19 21 18 22
REMARK SMILES IDX 23 23 9 25 8 27 7 28 32 29 6 30 34 31 35 32 4 33 36 34 3 35
REMARK SMILES IDX 2 36 33 37 5 38 1 41
REMARK H PARENT 13 13 19 24 9 26 5 39 5 40 1 42 1 43
ROOT
ATOM      1  C   UNL     1     -20.535  -5.966 -29.234  1.00  0.00     0.229 A 
ATOM      2  N   UNL     1     -19.391  -6.626 -29.037  1.00  0.00    -0.212 NA
ATOM      3  C   UNL     1     -19.235  -7.308 -27.900  1.00  0.00     0.081 A 
ATOM      4  C   UNL     1     -18.040  -7.983 -27.696  1.00  0.00     0.068 A 
ATOM      5  C   UNL     1     -17.812  -8.696 -26.527  1.00  0.00     0.125 A 
ATOM      6  C   UNL     1     -18.770  -8.758 -25.529  1.00  0.00     0.040 A 
ATOM      7  C   UNL     1     -19.975  -8.094 -25.717  1.00  0.00     0.017 A 
ATOM      8  C   UNL     1     -20.221  -7.366 -26.912  1.00  0.00     0.043 A 
ATOM      9  C   UNL     1     -21.396  -6.659 -27.210  1.00  0.00     0.144 A 
ATOM     10  N   UNL     1     -21.538  -5.961 -28.352  1.00  0.00    -0.195 NA
ATOM     11  F   UNL     1     -16.643  -9.322 -26.356  1.00  0.00    -0.207 F 
ENDROOT
BRANCH   1  12
ATOM     12  N   UNL     1     -20.761  -5.242 -30.397  1.00  0.00    -0.322 N 
ATOM     13  H   UNL     1     -21.026  -4.292 -30.171  1.00  0.00     0.170 HD
BRANCH  12  14
ATOM     14  C   UNL     1     -20.696  -5.547 -31.764  1.00  0.00     0.078 A 
ATOM     15  C   UNL     1     -20.094  -6.705 -32.277  1.00  0.00     0.041 A 
ATOM     16  C   UNL     1     -21.282  -4.650 -32.676  1.00  0.00     0.148 A 
ATOM     17  C   UNL     1     -20.079  -6.935 -33.667  1.00  0.00     0.022 A 
ATOM     18  C   UNL     1     -21.287  -4.849 -34.059  1.00  0.00     0.069 A 
ATOM     19  C   UNL     1     -20.671  -6.011 -34.520  1.00  0.00     0.068 A 
ATOM     20  C   UNL     1     -19.583  -7.939 -34.527  1.00  0.00     0.143 A 
ATOM     21  N   UNL     1     -20.489  -6.516 -35.781  1.00  0.00    -0.278 N 
ATOM     22  N   UNL     1     -19.832  -7.688 -35.812  1.00  0.00    -0.183 NA
ATOM     23  F   UNL     1     -21.869  -3.539 -32.200  1.00  0.00    -0.205 F 
ATOM     24  H   UNL     1     -20.791  -6.114 -36.661  1.00  0.00     0.190 HD
ENDBRANCH  12  14
ENDBRANCH   1  12
BRANCH   9  25
ATOM     25  N   UNL     1     -22.454  -6.667 -26.270  1.00  0.00    -0.337 N 
ATOM     26  H   UNL     1     -22.652  -7.617 -25.964  1.00  0.00     0.168 HD
BRANCH  25  27
ATOM     27  C   UNL     1     -23.623  -5.880 -26.236  1.00  0.00     0.077 A 
ATOM     28  C   UNL     1     -24.844  -6.291 -26.767  1.00  0.00     0.043 A 
ATOM     29  C   UNL     1     -23.538  -4.564 -25.770  1.00  0.00     0.148 A 
ATOM     30  C   UNL     1     -25.958  -5.413 -26.812  1.00  0.00     0.045 A 
ATOM     31  C   UNL     1     -24.630  -3.700 -25.801  1.00  0.00     0.070 A 
ATOM     32  C   UNL     1     -25.845  -4.108 -26.324  1.00  0.00     0.081 A 
ATOM     33  C   UNL     1     -27.215  -5.734 -27.335  1.00  0.00     0.137 A 
ATOM     34  N   UNL     1     -26.858  -3.235 -26.355  1.00  0.00    -0.213 NA
ATOM     35  N   UNL     1     -28.243  -4.871 -27.357  1.00  0.00    -0.196 NA
ATOM     36  C   UNL     1     -28.022  -3.659 -26.853  1.00  0.00     0.222 A 
ATOM     37  F   UNL     1     -22.376  -4.118 -25.273  1.00  0.00    -0.205 F 
BRANCH  33  38
ATOM     38  N   UNL     1     -27.495  -7.000 -27.859  1.00  0.00    -0.383 N 
ATOM     39  H   UNL     1     -27.555  -6.900 -28.873  1.00  0.00     0.158 HD
ATOM     40  H   UNL     1     -26.798  -7.685 -27.588  1.00  0.00     0.158 HD
ENDBRANCH  33  38
BRANCH  36  41
ATOM     41  N   UNL     1     -29.051  -2.746 -26.915  1.00  0.00    -0.368 N 
ATOM     42  H   UNL     1     -29.168  -2.290 -26.021  1.00  0.00     0.159 HD
ATOM     43  H   UNL     1     -28.952  -2.169 -27.730  1.00  0.00     0.159 HD
ENDBRANCH  36  41
ENDBRANCH  25  27
ENDBRANCH   9  25
TORSDOF 6
ENDMDL
MODEL 17
REMARK VINA RESULT:    -8.843      3.343      6.464
REMARK INTER + INTRA:         -12.354
REMARK INTER:                 -11.361
REMARK INTRA:                  -0.993
REMARK UNBOUND:                -0.926
REMARK SMILES Nc1nc(N)c2cc(Nc3nc(Nc4cc5cn[nH]c5cc4F)nc4cc(F)ccc34)c(F)cc2n1
REMARK SMILES IDX 12 1 24 2 25 3 26 4 27 5 29 6 30 7 31 8 10 9 11 10 28 11
REMARK SMILES IDX 13 12 14 14 15 15 22 16 16 17 21 18 20 19 17 20 19 21 18 22
REMARK SMILES IDX 23 23 9 25 8 27 7 28 32 29 6 30 34 31 35 32 4 33 36 34 3 35
REMARK SMILES IDX 2 36 33 37 5 38 1 41
REMARK H PARENT 13 13 19 24 9 26 5 39 5 40 1 42 1 43
ROOT
ATOM      1  C   UNL     1     -19.702  -7.852 -29.850  1.00  0.00     0.229 A 
ATOM      2  N   UNL     1     -18.830  -8.571 -29.139  1.00  0.00    -0.212 NA
ATOM      3  C   UNL     1     -18.443  -8.112 -27.947  1.00  0.00     0.081 A 
ATOM      4  C   UNL     1     -17.529  -8.858 -27.219  1.00  0.00     0.068 A 
ATOM      5  C   UNL     1     -17.077  -8.424 -25.980  1.00  0.00     0.125 A 
ATOM      6  C   UNL     1     -17.525  -7.235 -25.432  1.00  0.00     0.040 A 
ATOM      7  C   UNL     1     -18.444  -6.476 -26.143  1.00  0.00     0.017 A 
ATOM      8  C   UNL     1     -18.919  -6.913 -27.409  1.00  0.00     0.043 A 
ATOM      9  C   UNL     1     -19.844  -6.231 -28.215  1.00  0.00     0.144 A 
ATOM     10  N   UNL     1     -20.216  -6.695 -29.422  1.00  0.00    -0.195 NA
ATOM     11  F   UNL     1     -16.183  -9.161 -25.311  1.00  0.00    -0.207 F 
ENDROOT
BRANCH   1  12
ATOM     12  N   UNL     1     -20.147  -8.277 -31.094  1.00  0.00    -0.322 N 
ATOM     13  H   UNL     1     -20.576  -9.191 -31.018  1.00  0.00     0.170 HD
BRANCH  12  14
ATOM     14  C   UNL     1     -20.128  -7.719 -32.380  1.00  0.00     0.078 A 
ATOM     15  C   UNL     1     -20.430  -6.377 -32.652  1.00  0.00     0.041 A 
ATOM     16  C   UNL     1     -19.772  -8.546 -33.460  1.00  0.00     0.148 A 
ATOM     17  C   UNL     1     -20.380  -5.897 -33.976  1.00  0.00     0.022 A 
ATOM     18  C   UNL     1     -19.711  -8.102 -34.785  1.00  0.00     0.069 A 
ATOM     19  C   UNL     1     -20.024  -6.762 -35.004  1.00  0.00     0.068 A 
ATOM     20  C   UNL     1     -20.614  -4.663 -34.621  1.00  0.00     0.143 A 
ATOM     21  N   UNL     1     -20.071  -6.005 -36.145  1.00  0.00    -0.278 N 
ATOM     22  N   UNL     1     -20.425  -4.724 -35.939  1.00  0.00    -0.183 NA
ATOM     23  F   UNL     1     -19.473  -9.833 -33.216  1.00  0.00    -0.205 F 
ATOM     24  H   UNL     1     -19.870  -6.298 -37.094  1.00  0.00     0.190 HD
ENDBRANCH  12  14
ENDBRANCH   1  12
BRANCH   9  25
ATOM     25  N   UNL     1     -20.385  -5.010 -27.747  1.00  0.00    -0.337 N 
ATOM     26  H   UNL     1     -19.849  -4.662 -26.955  1.00  0.00     0.168 HD
BRANCH  25  27
ATOM     27  C   UNL     1     -21.734  -4.613 -27.647  1.00  0.00     0.077 A 
ATOM     28  C   UNL     1     -22.606  -5.084 -26.667  1.00  0.00     0.043 A 
ATOM     29  C   UNL     1     -22.278  -3.810 -28.655  1.00  0.00     0.148 A 
ATOM     30  C   UNL     1     -23.983  -4.742 -26.684  1.00  0.00     0.045 A 
ATOM     31  C   UNL     1     -23.626  -3.462 -28.672  1.00  0.00     0.070 A 
ATOM     32  C   UNL     1     -24.493  -3.924 -27.696  1.00  0.00     0.081 A 
ATOM     33  C   UNL     1     -24.931  -5.175 -25.751  1.00  0.00     0.137 A 
ATOM     34  N   UNL     1     -25.784  -3.584 -27.768  1.00  0.00    -0.213 NA
ATOM     35  N   UNL     1     -26.226  -4.827 -25.804  1.00  0.00    -0.196 NA
ATOM     36  C   UNL     1     -26.595  -4.034 -26.808  1.00  0.00     0.222 A 
ATOM     37  F   UNL     1     -21.482  -3.355 -29.633  1.00  0.00    -0.205 F 
BRANCH  33  38
ATOM     38  N   UNL     1     -24.584  -5.996 -24.672  1.00  0.00    -0.383 N 
ATOM     39  H   UNL     1     -25.056  -6.889 -24.809  1.00  0.00     0.158 HD
ATOM     40  H   UNL     1     -23.579  -6.109 -24.590  1.00  0.00     0.158 HD
ENDBRANCH  33  38
BRANCH  36  41
ATOM     41  N   UNL     1     -27.930  -3.709 -26.905  1.00  0.00    -0.368 N 
ATOM     42  H   UNL     1     -28.090  -3.130 -27.716  1.00  0.00     0.159 HD
ATOM     43  H   UNL     1     -28.493  -4.532 -26.793  1.00  0.00     0.159 HD
ENDBRANCH  36  41
ENDBRANCH  25  27
ENDBRANCH   9  25
TORSDOF 6
ENDMDL
MODEL 18
REMARK VINA RESULT:    -8.757      4.244      9.268
REMARK INTER + INTRA:         -12.242
REMARK INTER:                 -11.083
REMARK INTRA:                  -1.159
REMARK UNBOUND:                -0.926
REMARK SMILES Nc1nc(N)c2cc(Nc3nc(Nc4cc5cn[nH]c5cc4F)nc4cc(F)ccc34)c(F)cc2n1
REMARK SMILES IDX 12 1 24 2 25 3 26 4 27 5 29 6 30 7 31 8 10 9 11 10 28 11
REMARK SMILES IDX 13 12 14 14 15 15 22 16 16 17 21 18 20 19 17 20 19 21 18 22
REMARK SMILES IDX 23 23 9 25 8 27 7 28 32 29 6 30 34 31 35 32 4 33 36 34 3 35
REMARK SMILES IDX 2 36 33 37 5 38 1 41
REMARK H PARENT 13 13 19 24 9 26 5 39 5 40 1 42 1 43
ROOT
ATOM      1  C   UNL     1     -23.473  -6.699 -27.397  1.00  0.00     0.229 A 
ATOM      2  N   UNL     1     -22.494  -6.750 -26.490  1.00  0.00    -0.212 NA
ATOM      3  C   UNL     1     -21.394  -6.023 -26.695  1.00  0.00     0.081 A 
ATOM      4  C   UNL     1     -20.377  -6.089 -25.755  1.00  0.00     0.068 A 
ATOM      5  C   UNL     1     -19.201  -5.368 -25.921  1.00  0.00     0.125 A 
ATOM      6  C   UNL     1     -19.008  -4.560 -27.028  1.00  0.00     0.040 A 
ATOM      7  C   UNL     1     -20.018  -4.476 -27.978  1.00  0.00     0.017 A 
ATOM      8  C   UNL     1     -21.227  -5.205 -27.816  1.00  0.00     0.043 A 
ATOM      9  C   UNL     1     -22.311  -5.198 -28.707  1.00  0.00     0.144 A 
ATOM     10  N   UNL     1     -23.410  -5.946 -28.500  1.00  0.00    -0.195 NA
ATOM     11  F   UNL     1     -18.234  -5.467 -25.003  1.00  0.00    -0.207 F 
ENDROOT
BRANCH   1  12
ATOM     12  N   UNL     1     -24.644  -7.426 -27.240  1.00  0.00    -0.322 N 
ATOM     13  H   UNL     1     -24.477  -8.405 -27.441  1.00  0.00     0.170 HD
BRANCH  12  14
ATOM     14  C   UNL     1     -25.956  -7.096 -26.872  1.00  0.00     0.078 A 
ATOM     15  C   UNL     1     -26.383  -6.961 -25.543  1.00  0.00     0.041 A 
ATOM     16  C   UNL     1     -26.899  -6.870 -27.892  1.00  0.00     0.148 A 
ATOM     17  C   UNL     1     -27.721  -6.620 -25.262  1.00  0.00     0.022 A 
ATOM     18  C   UNL     1     -28.232  -6.529 -27.649  1.00  0.00     0.069 A 
ATOM     19  C   UNL     1     -28.608  -6.412 -26.312  1.00  0.00     0.068 A 
ATOM     20  C   UNL     1     -28.496  -6.408 -24.101  1.00  0.00     0.143 A 
ATOM     21  N   UNL     1     -29.803  -6.103 -25.718  1.00  0.00    -0.278 N 
ATOM     22  N   UNL     1     -29.761  -6.093 -24.374  1.00  0.00    -0.183 NA
ATOM     23  F   UNL     1     -26.505  -6.989 -29.171  1.00  0.00    -0.205 F 
ATOM     24  H   UNL     1     -30.684  -5.886 -26.170  1.00  0.00     0.190 HD
ENDBRANCH  12  14
ENDBRANCH   1  12
BRANCH   9  25
ATOM     25  N   UNL     1     -22.234  -4.391 -29.868  1.00  0.00    -0.337 N 
ATOM     26  H   UNL     1     -22.988  -3.708 -29.878  1.00  0.00     0.168 HD
BRANCH  25  27
ATOM     27  C   UNL     1     -21.873  -4.752 -31.182  1.00  0.00     0.077 A 
ATOM     28  C   UNL     1     -21.022  -5.814 -31.484  1.00  0.00     0.043 A 
ATOM     29  C   UNL     1     -22.273  -3.931 -32.241  1.00  0.00     0.148 A 
ATOM     30  C   UNL     1     -20.599  -6.059 -32.815  1.00  0.00     0.045 A 
ATOM     31  C   UNL     1     -21.870  -4.172 -33.552  1.00  0.00     0.070 A 
ATOM     32  C   UNL     1     -21.029  -5.230 -33.855  1.00  0.00     0.081 A 
ATOM     33  C   UNL     1     -19.740  -7.091 -33.210  1.00  0.00     0.137 A 
ATOM     34  N   UNL     1     -20.649  -5.407 -35.125  1.00  0.00    -0.213 NA
ATOM     35  N   UNL     1     -19.365  -7.288 -34.483  1.00  0.00    -0.196 NA
ATOM     36  C   UNL     1     -19.847  -6.441 -35.390  1.00  0.00     0.222 A 
ATOM     37  F   UNL     1     -23.072  -2.884 -31.994  1.00  0.00    -0.205 F 
BRANCH  33  38
ATOM     38  N   UNL     1     -19.223  -8.013 -32.293  1.00  0.00    -0.383 N 
ATOM     39  H   UNL     1     -19.457  -8.944 -32.637  1.00  0.00     0.158 HD
ATOM     40  H   UNL     1     -18.223  -7.899 -32.164  1.00  0.00     0.158 HD
ENDBRANCH  33  38
BRANCH  36  41
ATOM     41  N   UNL     1     -19.431  -6.599 -36.693  1.00  0.00    -0.368 N 
ATOM     42  H   UNL     1     -19.775  -7.471 -37.067  1.00  0.00     0.159 HD
ATOM     43  H   UNL     1     -19.606  -5.759 -37.215  1.00  0.00     0.159 HD
ENDBRANCH  36  41
ENDBRANCH  25  27
ENDBRANCH   9  25
TORSDOF 6
ENDMDL
MODEL 19
REMARK VINA RESULT:    -8.727      4.152      6.620
REMARK INTER + INTRA:         -12.204
REMARK INTER:                 -11.160
REMARK INTRA:                  -1.045
REMARK UNBOUND:                -0.926
REMARK SMILES Nc1nc(N)c2cc(Nc3nc(Nc4cc5cn[nH]c5cc4F)nc4cc(F)ccc34)c(F)cc2n1
REMARK SMILES IDX 12 1 24 2 25 3 26 4 27 5 29 6 30 7 31 8 10 9 11 10 28 11
REMARK SMILES IDX 13 12 14 14 15 15 22 16 16 17 21 18 20 19 17 20 19 21 18 22
REMARK SMILES IDX 23 23 9 25 8 27 7 28 32 29 6 30 34 31 35 32 4 33 36 34 3 35
REMARK SMILES IDX 2 36 33 37 5 38 1 41
REMARK H PARENT 13 13 19 24 9 26 5 39 5 40 1 42 1 43
ROOT
ATOM      1  C   UNL     1     -20.471  -6.789 -29.433  1.00  0.00     0.229 A 
ATOM      2  N   UNL     1     -19.409  -6.952 -28.641  1.00  0.00    -0.212 NA
ATOM      3  C   UNL     1     -19.344  -6.253 -27.505  1.00  0.00     0.081 A 
ATOM      4  C   UNL     1     -18.232  -6.418 -26.693  1.00  0.00     0.068 A 
ATOM      5  C   UNL     1     -18.101  -5.707 -25.507  1.00  0.00     0.125 A 
ATOM      6  C   UNL     1     -19.075  -4.813 -25.098  1.00  0.00     0.040 A 
ATOM      7  C   UNL     1     -20.199  -4.638 -25.895  1.00  0.00     0.017 A 
ATOM      8  C   UNL     1     -20.347  -5.365 -27.107  1.00  0.00     0.043 A 
ATOM      9  C   UNL     1     -21.434  -5.269 -27.989  1.00  0.00     0.144 A 
ATOM     10  N   UNL     1     -21.482  -5.966 -29.140  1.00  0.00    -0.195 NA
ATOM     11  F   UNL     1     -17.008  -5.879 -24.755  1.00  0.00    -0.207 F 
ENDROOT
BRANCH   1  12
ATOM     12  N   UNL     1     -20.601  -7.489 -30.624  1.00  0.00    -0.322 N 
ATOM     13  H   UNL     1     -20.887  -8.443 -30.439  1.00  0.00     0.170 HD
BRANCH  12  14
ATOM     14  C   UNL     1     -20.426  -7.157 -31.975  1.00  0.00     0.078 A 
ATOM     15  C   UNL     1     -20.607  -5.866 -32.490  1.00  0.00     0.041 A 
ATOM     16  C   UNL     1     -20.031  -8.172 -32.865  1.00  0.00     0.148 A 
ATOM     17  C   UNL     1     -20.404  -5.619 -33.862  1.00  0.00     0.022 A 
ATOM     18  C   UNL     1     -19.820  -7.961 -34.231  1.00  0.00     0.069 A 
ATOM     19  C   UNL     1     -20.017  -6.662 -34.695  1.00  0.00     0.068 A 
ATOM     20  C   UNL     1     -20.491  -4.500 -34.719  1.00  0.00     0.143 A 
ATOM     21  N   UNL     1     -19.907  -6.106 -35.942  1.00  0.00    -0.278 N 
ATOM     22  N   UNL     1     -20.188  -4.792 -35.983  1.00  0.00    -0.183 NA
ATOM     23  F   UNL     1     -19.847  -9.414 -32.387  1.00  0.00    -0.205 F 
ATOM     24  H   UNL     1     -19.641  -6.565 -36.806  1.00  0.00     0.190 HD
ENDBRANCH  12  14
ENDBRANCH   1  12
BRANCH   9  25
ATOM     25  N   UNL     1     -22.501  -4.398 -27.664  1.00  0.00    -0.337 N 
ATOM     26  H   UNL     1     -22.144  -3.516 -27.304  1.00  0.00     0.168 HD
BRANCH  25  27
ATOM     27  C   UNL     1     -23.754  -4.698 -27.092  1.00  0.00     0.077 A 
ATOM     28  C   UNL     1     -24.693  -5.538 -27.689  1.00  0.00     0.043 A 
ATOM     29  C   UNL     1     -24.147  -4.020 -25.933  1.00  0.00     0.148 A 
ATOM     30  C   UNL     1     -25.984  -5.711 -27.127  1.00  0.00     0.045 A 
ATOM     31  C   UNL     1     -25.409  -4.194 -25.371  1.00  0.00     0.070 A 
ATOM     32  C   UNL     1     -26.341  -5.032 -25.959  1.00  0.00     0.081 A 
ATOM     33  C   UNL     1     -26.992  -6.523 -27.660  1.00  0.00     0.137 A 
ATOM     34  N   UNL     1     -27.548  -5.147 -25.396  1.00  0.00    -0.213 NA
ATOM     35  N   UNL     1     -28.201  -6.658 -27.096  1.00  0.00    -0.196 NA
ATOM     36  C   UNL     1     -28.423  -5.971 -25.977  1.00  0.00     0.222 A 
ATOM     37  F   UNL     1     -23.285  -3.183 -25.339  1.00  0.00    -0.205 F 
BRANCH  33  38
ATOM     38  N   UNL     1     -26.795  -7.274 -28.824  1.00  0.00    -0.383 N 
ATOM     39  H   UNL     1     -26.389  -8.166 -28.542  1.00  0.00     0.158 HD
ATOM     40  H   UNL     1     -27.658  -7.400 -29.343  1.00  0.00     0.158 HD
ENDBRANCH  33  38
BRANCH  36  41
ATOM     41  N   UNL     1     -29.677  -6.060 -25.413  1.00  0.00    -0.368 N 
ATOM     42  H   UNL     1     -29.634  -6.575 -24.546  1.00  0.00     0.159 HD
ATOM     43  H   UNL     1     -30.116  -5.157 -25.406  1.00  0.00     0.159 HD
ENDBRANCH  36  41
ENDBRANCH  25  27
ENDBRANCH   9  25
TORSDOF 6
ENDMDL
MODEL 20
REMARK VINA RESULT:    -8.664      3.755      7.487
REMARK INTER + INTRA:         -12.122
REMARK INTER:                 -11.126
REMARK INTRA:                  -0.996
REMARK UNBOUND:                -0.926
REMARK SMILES Nc1nc(N)c2cc(Nc3nc(Nc4cc5cn[nH]c5cc4F)nc4cc(F)ccc34)c(F)cc2n1
REMARK SMILES IDX 12 1 24 2 25 3 26 4 27 5 29 6 30 7 31 8 10 9 11 10 28 11
REMARK SMILES IDX 13 12 14 14 15 15 22 16 16 17 21 18 20 19 17 20 19 21 18 22
REMARK SMILES IDX 23 23 9 25 8 27 7 28 32 29 6 30 34 31 35 32 4 33 36 34 3 35
REMARK SMILES IDX 2 36 33 37 5 38 1 41
REMARK H PARENT 13 13 19 24 9 26 5 39 5 40 1 42 1 43
ROOT
ATOM      1  C   UNL     1     -22.697  -4.248 -27.541  1.00  0.00     0.229 A 
ATOM      2  N   UNL     1     -23.223  -3.720 -28.649  1.00  0.00    -0.212 NA
ATOM      3  C   UNL     1     -22.714  -4.075 -29.830  1.00  0.00     0.081 A 
ATOM      4  C   UNL     1     -23.258  -3.513 -30.976  1.00  0.00     0.068 A 
ATOM      5  C   UNL     1     -22.761  -3.831 -32.233  1.00  0.00     0.125 A 
ATOM      6  C   UNL     1     -21.709  -4.719 -32.383  1.00  0.00     0.040 A 
ATOM      7  C   UNL     1     -21.155  -5.296 -31.248  1.00  0.00     0.017 A 
ATOM      8  C   UNL     1     -21.660  -4.982 -29.957  1.00  0.00     0.043 A 
ATOM      9  C   UNL     1     -21.180  -5.502 -28.745  1.00  0.00     0.144 A 
ATOM     10  N   UNL     1     -21.689  -5.126 -27.557  1.00  0.00    -0.195 NA
ATOM     11  F   UNL     1     -23.298  -3.260 -33.317  1.00  0.00    -0.207 F 
ENDROOT
BRANCH   1  12
ATOM     12  N   UNL     1     -23.184  -3.924 -26.282  1.00  0.00    -0.322 N 
ATOM     13  H   UNL     1     -22.507  -3.363 -25.780  1.00  0.00     0.170 HD
BRANCH  12  14
ATOM     14  C   UNL     1     -24.374  -4.202 -25.595  1.00  0.00     0.078 A 
ATOM     15  C   UNL     1     -25.415  -4.981 -26.122  1.00  0.00     0.041 A 
ATOM     16  C   UNL     1     -24.531  -3.685 -24.297  1.00  0.00     0.148 A 
ATOM     17  C   UNL     1     -26.576  -5.215 -25.358  1.00  0.00     0.022 A 
ATOM     18  C   UNL     1     -25.668  -3.900 -23.512  1.00  0.00     0.069 A 
ATOM     19  C   UNL     1     -26.676  -4.675 -24.082  1.00  0.00     0.068 A 
ATOM     20  C   UNL     1     -27.790  -5.912 -25.541  1.00  0.00     0.143 A 
ATOM     21  N   UNL     1     -27.900  -5.077 -23.615  1.00  0.00    -0.278 N 
ATOM     22  N   UNL     1     -28.596  -5.832 -24.483  1.00  0.00    -0.183 NA
ATOM     23  F   UNL     1     -23.540  -2.942 -23.775  1.00  0.00    -0.205 F 
ATOM     24  H   UNL     1     -28.318  -4.874 -22.715  1.00  0.00     0.190 HD
ENDBRANCH  12  14
ENDBRANCH   1  12
BRANCH   9  25
ATOM     25  N   UNL     1     -20.117  -6.435 -28.776  1.00  0.00    -0.337 N 
ATOM     26  H   UNL     1     -20.112  -6.942 -29.659  1.00  0.00     0.168 HD
BRANCH  25  27
ATOM     27  C   UNL     1     -19.607  -7.241 -27.737  1.00  0.00     0.077 A 
ATOM     28  C   UNL     1     -18.540  -6.866 -26.923  1.00  0.00     0.043 A 
ATOM     29  C   UNL     1     -20.098  -8.543 -27.591  1.00  0.00     0.148 A 
ATOM     30  C   UNL     1     -17.992  -7.765 -25.972  1.00  0.00     0.045 A 
ATOM     31  C   UNL     1     -19.572  -9.427 -26.652  1.00  0.00     0.070 A 
ATOM     32  C   UNL     1     -18.515  -9.055 -25.839  1.00  0.00     0.081 A 
ATOM     33  C   UNL     1     -16.917  -7.481 -25.122  1.00  0.00     0.137 A 
ATOM     34  N   UNL     1     -18.027  -9.946 -24.969  1.00  0.00    -0.213 NA
ATOM     35  N   UNL     1     -16.430  -8.362 -24.235  1.00  0.00    -0.196 NA
ATOM     36  C   UNL     1     -17.016  -9.556 -24.189  1.00  0.00     0.222 A 
ATOM     37  F   UNL     1     -21.108  -8.955 -28.370  1.00  0.00    -0.205 F 
BRANCH  33  38
ATOM     38  N   UNL     1     -16.282  -6.234 -25.126  1.00  0.00    -0.383 N 
ATOM     39  H   UNL     1     -15.868  -6.104 -24.203  1.00  0.00     0.158 HD
ATOM     40  H   UNL     1     -15.589  -6.165 -25.864  1.00  0.00     0.158 HD
ENDBRANCH  33  38
BRANCH  36  41
ATOM     41  N   UNL     1     -16.495 -10.489 -23.320  1.00  0.00    -0.368 N 
ATOM     42  H   UNL     1     -15.608 -10.829 -23.663  1.00  0.00     0.159 HD
ATOM     43  H   UNL     1     -16.536 -10.142 -22.378  1.00  0.00     0.159 HD
ENDBRANCH  36  41
ENDBRANCH  25  27
ENDBRANCH   9  25
TORSDOF 6
ENDMDL
