REMARK SMILES Nc1nc(N)c2cc(-c3cc(N4CCOCC4)nc(Nc4cc5ccoc5cc4F)n3)ccc2n1
REMARK SMILES IDX 11 1 10 2 9 3 31 4 19 5 18 6 12 7 17 8 16 9 13 10 15 11
REMARK SMILES IDX 14 12 8 13 7 14 32 15 6 16 33 17 34 18 4 19 35 20 3 21 2 22
REMARK SMILES IDX 5 23 1 26 20 29 21 31 22 32 29 33 23 34 28 35 27 36 24 37
REMARK SMILES IDX 26 38 25 39 30 40
REMARK H PARENT 5 24 5 25 1 27 1 28 20 30
ROOT
ATOM      1  C   UNL     1       0.474  -2.435   0.589  1.00  0.00     0.134 A 
ATOM      2  C   UNL     1      -0.608  -1.613   0.343  1.00  0.00     0.076 A 
ATOM      3  C   UNL     1      -0.360  -0.336  -0.120  1.00  0.00     0.078 A 
ATOM      4  N   UNL     1       0.894   0.104  -0.320  1.00  0.00    -0.213 NA
ATOM      5  C   UNL     1       1.902  -0.724  -0.042  1.00  0.00     0.229 A 
ATOM      6  N   UNL     1       1.723  -1.978   0.397  1.00  0.00    -0.195 NA
ENDROOT
BRANCH   1   7
ATOM      7  N   UNL     1       0.315  -3.721   1.079  1.00  0.00    -0.352 N 
ATOM      8  C   UNL     1      -0.896  -4.510   0.823  1.00  0.00     0.146 C 
ATOM      9  C   UNL     1      -0.542  -5.988   0.582  1.00  0.00     0.181 C 
ATOM     10  C   UNL     1       1.525  -4.488   1.407  1.00  0.00     0.146 C 
ATOM     11  O   UNL     1       0.175  -6.586   1.666  1.00  0.00    -0.378 OA
ATOM     12  C   UNL     1       1.138  -5.702   2.268  1.00  0.00     0.181 C 
ENDBRANCH   1   7
BRANCH   3  13
ATOM     13  C   UNL     1      -1.426   0.639  -0.432  1.00  0.00     0.001 A 
ATOM     14  C   UNL     1      -2.656   0.661   0.245  1.00  0.00     0.024 A 
ATOM     15  C   UNL     1      -1.237   1.615  -1.425  1.00  0.00     0.012 A 
ATOM     16  C   UNL     1      -3.663   1.618  -0.059  1.00  0.00     0.043 A 
ATOM     17  C   UNL     1      -2.227   2.563  -1.717  1.00  0.00     0.030 A 
ATOM     18  C   UNL     1      -3.438   2.584  -1.043  1.00  0.00     0.078 A 
ATOM     19  C   UNL     1      -4.913   1.701   0.566  1.00  0.00     0.136 A 
ATOM     20  N   UNL     1      -4.340   3.522  -1.353  1.00  0.00    -0.213 NA
ATOM     21  N   UNL     1      -5.819   2.644   0.279  1.00  0.00    -0.196 NA
ATOM     22  C   UNL     1      -5.480   3.530  -0.659  1.00  0.00     0.222 A 
BRANCH  19  23
ATOM     23  N   UNL     1      -5.306   0.787   1.556  1.00  0.00    -0.383 N 
ATOM     24  H   UNL     1      -5.280  -0.167   1.208  1.00  0.00     0.158 HD
ATOM     25  H   UNL     1      -6.249   1.048   1.841  1.00  0.00     0.158 HD
ENDBRANCH  19  23
BRANCH  22  26
ATOM     26  N   UNL     1      -6.405   4.504  -0.978  1.00  0.00    -0.368 N 
ATOM     27  H   UNL     1      -6.253   4.826  -1.926  1.00  0.00     0.159 HD
ATOM     28  H   UNL     1      -7.335   4.192  -0.734  1.00  0.00     0.159 HD
ENDBRANCH  22  26
ENDBRANCH   3  13
BRANCH   5  29
ATOM     29  N   UNL     1       3.224  -0.334  -0.217  1.00  0.00    -0.322 N 
ATOM     30  H   UNL     1       3.844  -1.120  -0.068  1.00  0.00     0.170 HD
BRANCH  29  31
ATOM     31  C   UNL     1       3.840   0.876  -0.567  1.00  0.00     0.078 A 
ATOM     32  C   UNL     1       3.154   2.099  -0.642  1.00  0.00     0.041 A 
ATOM     33  C   UNL     1       5.213   0.861  -0.885  1.00  0.00     0.150 A 
ATOM     34  C   UNL     1       3.844   3.267  -1.022  1.00  0.00     0.022 A 
ATOM     35  C   UNL     1       5.926   1.995  -1.276  1.00  0.00     0.089 A 
ATOM     36  C   UNL     1       5.197   3.175  -1.322  1.00  0.00     0.136 A 
ATOM     37  C   UNL     1       3.503   4.635  -1.195  1.00  0.00     0.051 A 
ATOM     38  O   UNL     1       5.691   4.400  -1.663  1.00  0.00    -0.464 OA
ATOM     39  C   UNL     1       4.656   5.277  -1.589  1.00  0.00     0.196 A 
ATOM     40  F   UNL     1       5.877  -0.304  -0.812  1.00  0.00    -0.205 F 
ENDBRANCH  29  31
ENDBRANCH   5  29
TORSDOF 6
