MODEL 1
REMARK VINA RESULT:    -9.611      0.000      0.000
REMARK INTER + INTRA:         -13.489
REMARK INTER:                 -12.421
REMARK INTRA:                  -1.068
REMARK UNBOUND:                -1.068
REMARK SMILES Nc1nc(N)c2cc(-c3cc(N4CCOCC4)nc(Nc4cc5ccoc5cc4F)n3)ccc2n1
REMARK SMILES IDX 11 1 10 2 9 3 31 4 19 5 18 6 12 7 17 8 16 9 13 10 15 11
REMARK SMILES IDX 14 12 8 13 7 14 32 15 6 16 33 17 34 18 4 19 35 20 3 21 2 22
REMARK SMILES IDX 5 23 1 26 20 29 21 31 22 32 29 33 23 34 28 35 27 36 24 37
REMARK SMILES IDX 26 38 25 39 30 40
REMARK H PARENT 5 24 5 25 1 27 1 28 20 30
ROOT
ATOM      1  C   UNL     1     -24.263  -4.559 -26.749  1.00  0.00     0.134 A 
ATOM      2  C   UNL     1     -24.074  -4.514 -28.116  1.00  0.00     0.076 A 
ATOM      3  C   UNL     1     -22.780  -4.573 -28.594  1.00  0.00     0.078 A 
ATOM      4  N   UNL     1     -21.730  -4.663 -27.760  1.00  0.00    -0.213 NA
ATOM      5  C   UNL     1     -21.970  -4.678 -26.448  1.00  0.00     0.229 A 
ATOM      6  N   UNL     1     -23.204  -4.637 -25.926  1.00  0.00    -0.195 NA
ENDROOT
BRANCH   1   7
ATOM      7  N   UNL     1     -25.526  -4.480 -26.186  1.00  0.00    -0.352 N 
ATOM      8  C   UNL     1     -26.616  -3.725 -26.815  1.00  0.00     0.146 C 
ATOM      9  C   UNL     1     -27.956  -4.463 -26.651  1.00  0.00     0.181 C 
ATOM     10  C   UNL     1     -25.933  -5.541 -25.254  1.00  0.00     0.146 C 
ATOM     11  O   UNL     1     -28.302  -4.718 -25.286  1.00  0.00    -0.378 OA
ATOM     12  C   UNL     1     -27.173  -5.080 -24.470  1.00  0.00     0.181 C 
ENDBRANCH   1   7
BRANCH   3  13
ATOM     13  C   UNL     1     -22.440  -4.544 -30.032  1.00  0.00     0.001 A 
ATOM     14  C   UNL     1     -21.558  -5.463 -30.622  1.00  0.00     0.024 A 
ATOM     15  C   UNL     1     -23.016  -3.589 -30.887  1.00  0.00     0.012 A 
ATOM     16  C   UNL     1     -21.256  -5.429 -32.011  1.00  0.00     0.043 A 
ATOM     17  C   UNL     1     -22.725  -3.562 -32.257  1.00  0.00     0.030 A 
ATOM     18  C   UNL     1     -21.857  -4.474 -32.836  1.00  0.00     0.078 A 
ATOM     19  C   UNL     1     -20.385  -6.305 -32.670  1.00  0.00     0.136 A 
ATOM     20  N   UNL     1     -21.628  -4.412 -34.152  1.00  0.00    -0.213 NA
ATOM     21  N   UNL     1     -20.159  -6.266 -33.989  1.00  0.00    -0.196 NA
ATOM     22  C   UNL     1     -20.812  -5.328 -34.678  1.00  0.00     0.222 A 
BRANCH  19  23
ATOM     23  N   UNL     1     -19.680  -7.304 -31.981  1.00  0.00    -0.383 N 
ATOM     24  H   UNL     1     -19.465  -8.089 -32.588  1.00  0.00     0.158 HD
ATOM     25  H   UNL     1     -20.268  -7.594 -31.200  1.00  0.00     0.158 HD
ENDBRANCH  19  23
BRANCH  22  26
ATOM     26  N   UNL     1     -20.584  -5.263 -36.038  1.00  0.00    -0.368 N 
ATOM     27  H   UNL     1     -21.304  -5.775 -36.532  1.00  0.00     0.159 HD
ATOM     28  H   UNL     1     -20.417  -4.305 -36.316  1.00  0.00     0.159 HD
ENDBRANCH  22  26
ENDBRANCH   3  13
BRANCH   5  29
ATOM     29  N   UNL     1     -20.932  -4.762 -25.528  1.00  0.00    -0.322 N 
ATOM     30  H   UNL     1     -21.105  -4.140 -24.748  1.00  0.00     0.170 HD
BRANCH  29  31
ATOM     31  C   UNL     1     -19.757  -5.523 -25.457  1.00  0.00     0.078 A 
ATOM     32  C   UNL     1     -19.738  -6.925 -25.543  1.00  0.00     0.041 A 
ATOM     33  C   UNL     1     -18.534  -4.850 -25.266  1.00  0.00     0.150 A 
ATOM     34  C   UNL     1     -18.514  -7.616 -25.442  1.00  0.00     0.022 A 
ATOM     35  C   UNL     1     -17.305  -5.501 -25.151  1.00  0.00     0.089 A 
ATOM     36  C   UNL     1     -17.348  -6.884 -25.253  1.00  0.00     0.136 A 
ATOM     37  C   UNL     1     -18.112  -8.977 -25.488  1.00  0.00     0.051 A 
ATOM     38  O   UNL     1     -16.272  -7.719 -25.183  1.00  0.00    -0.464 OA
ATOM     39  C   UNL     1     -16.745  -8.985 -25.321  1.00  0.00     0.196 A 
ATOM     40  F   UNL     1     -18.543  -3.509 -25.188  1.00  0.00    -0.205 F 
ENDBRANCH  29  31
ENDBRANCH   5  29
TORSDOF 6
ENDMDL
MODEL 2
REMARK VINA RESULT:    -9.382      3.302      8.032
REMARK INTER + INTRA:         -13.192
REMARK INTER:                 -12.237
REMARK INTRA:                  -0.956
REMARK UNBOUND:                -1.068
REMARK SMILES Nc1nc(N)c2cc(-c3cc(N4CCOCC4)nc(Nc4cc5ccoc5cc4F)n3)ccc2n1
REMARK SMILES IDX 11 1 10 2 9 3 31 4 19 5 18 6 12 7 17 8 16 9 13 10 15 11
REMARK SMILES IDX 14 12 8 13 7 14 32 15 6 16 33 17 34 18 4 19 35 20 3 21 2 22
REMARK SMILES IDX 5 23 1 26 20 29 21 31 22 32 29 33 23 34 28 35 27 36 24 37
REMARK SMILES IDX 26 38 25 39 30 40
REMARK H PARENT 5 24 5 25 1 27 1 28 20 30
ROOT
ATOM      1  C   UNL     1     -22.698  -3.545 -28.966  1.00  0.00     0.134 A 
ATOM      2  C   UNL     1     -21.504  -4.101 -28.550  1.00  0.00     0.076 A 
ATOM      3  C   UNL     1     -21.393  -4.483 -27.227  1.00  0.00     0.078 A 
ATOM      4  N   UNL     1     -22.408  -4.315 -26.363  1.00  0.00    -0.213 NA
ATOM      5  C   UNL     1     -23.529  -3.750 -26.814  1.00  0.00     0.229 A 
ATOM      6  N   UNL     1     -23.700  -3.372 -28.089  1.00  0.00    -0.195 NA
ENDROOT
BRANCH   1   7
ATOM      7  N   UNL     1     -22.884  -3.112 -30.268  1.00  0.00    -0.352 N 
ATOM      8  C   UNL     1     -22.377  -3.864 -31.422  1.00  0.00     0.146 C 
ATOM      9  C   UNL     1     -23.381  -3.815 -32.588  1.00  0.00     0.181 C 
ATOM     10  C   UNL     1     -24.005  -2.200 -30.537  1.00  0.00     0.146 C 
ATOM     11  O   UNL     1     -23.698  -2.486 -33.010  1.00  0.00    -0.378 OA
ATOM     12  C   UNL     1     -23.813  -1.554 -31.919  1.00  0.00     0.181 C 
ENDBRANCH   1   7
BRANCH   3  13
ATOM     13  C   UNL     1     -20.176  -5.098 -26.657  1.00  0.00     0.001 A 
ATOM     14  C   UNL     1     -20.110  -6.453 -26.294  1.00  0.00     0.024 A 
ATOM     15  C   UNL     1     -19.008  -4.339 -26.470  1.00  0.00     0.012 A 
ATOM     16  C   UNL     1     -18.924  -7.030 -25.761  1.00  0.00     0.043 A 
ATOM     17  C   UNL     1     -17.838  -4.912 -25.953  1.00  0.00     0.030 A 
ATOM     18  C   UNL     1     -17.776  -6.251 -25.601  1.00  0.00     0.078 A 
ATOM     19  C   UNL     1     -18.781  -8.368 -25.373  1.00  0.00     0.136 A 
ATOM     20  N   UNL     1     -16.627  -6.747 -25.128  1.00  0.00    -0.213 NA
ATOM     21  N   UNL     1     -17.634  -8.883 -24.913  1.00  0.00    -0.196 NA
ATOM     22  C   UNL     1     -16.597  -8.048 -24.831  1.00  0.00     0.222 A 
BRANCH  19  23
ATOM     23  N   UNL     1     -19.850  -9.276 -25.444  1.00  0.00    -0.383 N 
ATOM     24  H   UNL     1     -19.589 -10.181 -25.065  1.00  0.00     0.158 HD
ATOM     25  H   UNL     1     -20.109  -9.350 -26.426  1.00  0.00     0.158 HD
ENDBRANCH  19  23
BRANCH  22  26
ATOM     26  N   UNL     1     -15.408  -8.557 -24.349  1.00  0.00    -0.368 N 
ATOM     27  H   UNL     1     -15.306  -8.324 -23.369  1.00  0.00     0.159 HD
ATOM     28  H   UNL     1     -15.315  -9.529 -24.611  1.00  0.00     0.159 HD
ENDBRANCH  22  26
ENDBRANCH   3  13
BRANCH   5  29
ATOM     29  N   UNL     1     -24.617  -3.539 -25.975  1.00  0.00    -0.322 N 
ATOM     30  H   UNL     1     -24.484  -2.693 -25.436  1.00  0.00     0.170 HD
BRANCH  29  31
ATOM     31  C   UNL     1     -25.820  -4.224 -25.756  1.00  0.00     0.078 A 
ATOM     32  C   UNL     1     -26.790  -4.421 -26.753  1.00  0.00     0.041 A 
ATOM     33  C   UNL     1     -26.083  -4.718 -24.463  1.00  0.00     0.150 A 
ATOM     34  C   UNL     1     -27.983  -5.103 -26.444  1.00  0.00     0.022 A 
ATOM     35  C   UNL     1     -27.258  -5.388 -24.118  1.00  0.00     0.089 A 
ATOM     36  C   UNL     1     -28.173  -5.562 -25.146  1.00  0.00     0.136 A 
ATOM     37  C   UNL     1     -29.147  -5.487 -27.162  1.00  0.00     0.051 A 
ATOM     38  O   UNL     1     -29.376  -6.196 -25.040  1.00  0.00    -0.464 OA
ATOM     39  C   UNL     1     -29.961  -6.141 -26.264  1.00  0.00     0.196 A 
ATOM     40  F   UNL     1     -25.159  -4.537 -23.505  1.00  0.00    -0.205 F 
ENDBRANCH  29  31
ENDBRANCH   5  29
TORSDOF 6
ENDMDL
MODEL 3
REMARK VINA RESULT:    -9.297      2.900      7.180
REMARK INTER + INTRA:         -13.082
REMARK INTER:                 -12.117
REMARK INTRA:                  -0.965
REMARK UNBOUND:                -1.068
REMARK SMILES Nc1nc(N)c2cc(-c3cc(N4CCOCC4)nc(Nc4cc5ccoc5cc4F)n3)ccc2n1
REMARK SMILES IDX 11 1 10 2 9 3 31 4 19 5 18 6 12 7 17 8 16 9 13 10 15 11
REMARK SMILES IDX 14 12 8 13 7 14 32 15 6 16 33 17 34 18 4 19 35 20 3 21 2 22
REMARK SMILES IDX 5 23 1 26 20 29 21 31 22 32 29 33 23 34 28 35 27 36 24 37
REMARK SMILES IDX 26 38 25 39 30 40
REMARK H PARENT 5 24 5 25 1 27 1 28 20 30
ROOT
ATOM      1  C   UNL     1     -22.502  -3.668 -29.159  1.00  0.00     0.134 A 
ATOM      2  C   UNL     1     -23.493  -4.070 -28.286  1.00  0.00     0.076 A 
ATOM      3  C   UNL     1     -23.111  -4.571 -27.057  1.00  0.00     0.078 A 
ATOM      4  N   UNL     1     -21.815  -4.674 -26.717  1.00  0.00    -0.213 NA
ATOM      5  C   UNL     1     -20.899  -4.294 -27.608  1.00  0.00     0.229 A 
ATOM      6  N   UNL     1     -21.209  -3.789 -28.811  1.00  0.00    -0.195 NA
ENDROOT
BRANCH   1   7
ATOM      7  N   UNL     1     -22.797  -3.178 -30.420  1.00  0.00    -0.352 N 
ATOM      8  C   UNL     1     -22.392  -3.879 -31.645  1.00  0.00     0.146 C 
ATOM      9  C   UNL     1     -23.491  -3.781 -32.718  1.00  0.00     0.181 C 
ATOM     10  C   UNL     1     -23.935  -2.257 -30.553  1.00  0.00     0.146 C 
ATOM     11  O   UNL     1     -23.840  -2.435 -33.053  1.00  0.00    -0.378 OA
ATOM     12  C   UNL     1     -23.859  -1.551 -31.917  1.00  0.00     0.181 C 
ENDBRANCH   1   7
BRANCH   3  13
ATOM     13  C   UNL     1     -24.070  -5.026 -26.028  1.00  0.00     0.001 A 
ATOM     14  C   UNL     1     -24.578  -4.174 -25.035  1.00  0.00     0.024 A 
ATOM     15  C   UNL     1     -24.535  -6.352 -26.018  1.00  0.00     0.012 A 
ATOM     16  C   UNL     1     -25.512  -4.627 -24.064  1.00  0.00     0.043 A 
ATOM     17  C   UNL     1     -25.463  -6.794 -25.066  1.00  0.00     0.030 A 
ATOM     18  C   UNL     1     -25.966  -5.948 -24.090  1.00  0.00     0.078 A 
ATOM     19  C   UNL     1     -26.059  -3.842 -23.041  1.00  0.00     0.136 A 
ATOM     20  N   UNL     1     -26.862  -6.421 -23.216  1.00  0.00    -0.213 NA
ATOM     21  N   UNL     1     -26.969  -4.296 -22.171  1.00  0.00    -0.196 NA
ATOM     22  C   UNL     1     -27.347  -5.568 -22.312  1.00  0.00     0.222 A 
BRANCH  19  23
ATOM     23  N   UNL     1     -25.687  -2.501 -22.860  1.00  0.00    -0.383 N 
ATOM     24  H   UNL     1     -26.413  -1.978 -22.380  1.00  0.00     0.158 HD
ATOM     25  H   UNL     1     -25.509  -2.116 -23.787  1.00  0.00     0.158 HD
ENDBRANCH  19  23
BRANCH  22  26
ATOM     26  N   UNL     1     -28.276  -6.059 -21.417  1.00  0.00    -0.368 N 
ATOM     27  H   UNL     1     -28.488  -7.024 -21.636  1.00  0.00     0.159 HD
ATOM     28  H   UNL     1     -27.992  -5.846 -20.470  1.00  0.00     0.159 HD
ENDBRANCH  22  26
ENDBRANCH   3  13
BRANCH   5  29
ATOM     29  N   UNL     1     -19.541  -4.381 -27.328  1.00  0.00    -0.322 N 
ATOM     30  H   UNL     1     -19.074  -3.521 -27.587  1.00  0.00     0.170 HD
BRANCH  29  31
ATOM     31  C   UNL     1     -18.729  -5.373 -26.760  1.00  0.00     0.078 A 
ATOM     32  C   UNL     1     -18.768  -6.721 -27.151  1.00  0.00     0.041 A 
ATOM     33  C   UNL     1     -17.847  -5.004 -25.724  1.00  0.00     0.150 A 
ATOM     34  C   UNL     1     -17.932  -7.660 -26.515  1.00  0.00     0.022 A 
ATOM     35  C   UNL     1     -17.014  -5.908 -25.064  1.00  0.00     0.089 A 
ATOM     36  C   UNL     1     -17.089  -7.223 -25.501  1.00  0.00     0.136 A 
ATOM     37  C   UNL     1     -17.695  -9.054 -26.639  1.00  0.00     0.051 A 
ATOM     38  O   UNL     1     -16.359  -8.266 -25.010  1.00  0.00    -0.464 OA
ATOM     39  C   UNL     1     -16.738  -9.372 -25.701  1.00  0.00     0.196 A 
ATOM     40  F   UNL     1     -17.801  -3.717 -25.347  1.00  0.00    -0.205 F 
ENDBRANCH  29  31
ENDBRANCH   5  29
TORSDOF 6
ENDMDL
MODEL 4
REMARK VINA RESULT:    -9.254      3.531      8.275
REMARK INTER + INTRA:         -13.027
REMARK INTER:                 -12.033
REMARK INTRA:                  -0.994
REMARK UNBOUND:                -1.068
REMARK SMILES Nc1nc(N)c2cc(-c3cc(N4CCOCC4)nc(Nc4cc5ccoc5cc4F)n3)ccc2n1
REMARK SMILES IDX 11 1 10 2 9 3 31 4 19 5 18 6 12 7 17 8 16 9 13 10 15 11
REMARK SMILES IDX 14 12 8 13 7 14 32 15 6 16 33 17 34 18 4 19 35 20 3 21 2 22
REMARK SMILES IDX 5 23 1 26 20 29 21 31 22 32 29 33 23 34 28 35 27 36 24 37
REMARK SMILES IDX 26 38 25 39 30 40
REMARK H PARENT 5 24 5 25 1 27 1 28 20 30
ROOT
ATOM      1  C   UNL     1     -23.167  -3.791 -29.061  1.00  0.00     0.134 A 
ATOM      2  C   UNL     1     -22.067  -4.507 -28.630  1.00  0.00     0.076 A 
ATOM      3  C   UNL     1     -22.107  -5.055 -27.363  1.00  0.00     0.078 A 
ATOM      4  N   UNL     1     -23.175  -4.894 -26.564  1.00  0.00    -0.213 NA
ATOM      5  C   UNL     1     -24.199  -4.172 -27.023  1.00  0.00     0.229 A 
ATOM      6  N   UNL     1     -24.223  -3.627 -28.247  1.00  0.00    -0.195 NA
ENDROOT
BRANCH   1   7
ATOM      7  N   UNL     1     -23.199  -3.187 -30.307  1.00  0.00    -0.352 N 
ATOM      8  C   UNL     1     -22.643  -3.832 -31.503  1.00  0.00     0.146 C 
ATOM      9  C   UNL     1     -23.527  -3.558 -32.731  1.00  0.00     0.181 C 
ATOM     10  C   UNL     1     -24.222  -2.159 -30.548  1.00  0.00     0.146 C 
ATOM     11  O   UNL     1     -23.708  -2.165 -33.003  1.00  0.00    -0.378 OA
ATOM     12  C   UNL     1     -23.856  -1.367 -31.815  1.00  0.00     0.181 C 
ENDBRANCH   1   7
BRANCH   3  13
ATOM     13  C   UNL     1     -21.004  -5.851 -26.785  1.00  0.00     0.001 A 
ATOM     14  C   UNL     1     -19.745  -5.302 -26.490  1.00  0.00     0.024 A 
ATOM     15  C   UNL     1     -21.183  -7.212 -26.483  1.00  0.00     0.012 A 
ATOM     16  C   UNL     1     -18.702  -6.082 -25.919  1.00  0.00     0.043 A 
ATOM     17  C   UNL     1     -20.156  -7.976 -25.912  1.00  0.00     0.030 A 
ATOM     18  C   UNL     1     -18.917  -7.429 -25.618  1.00  0.00     0.078 A 
ATOM     19  C   UNL     1     -17.422  -5.610 -25.602  1.00  0.00     0.136 A 
ATOM     20  N   UNL     1     -17.980  -8.202 -25.059  1.00  0.00    -0.213 NA
ATOM     21  N   UNL     1     -16.480  -6.366 -25.026  1.00  0.00    -0.196 NA
ATOM     22  C   UNL     1     -16.811  -7.631 -24.760  1.00  0.00     0.222 A 
BRANCH  19  23
ATOM     23  N   UNL     1     -17.036  -4.287 -25.868  1.00  0.00    -0.383 N 
ATOM     24  H   UNL     1     -17.309  -4.004 -26.805  1.00  0.00     0.158 HD
ATOM     25  H   UNL     1     -16.025  -4.246 -25.753  1.00  0.00     0.158 HD
ENDBRANCH  19  23
BRANCH  22  26
ATOM     26  N   UNL     1     -15.849  -8.431 -24.177  1.00  0.00    -0.368 N 
ATOM     27  H   UNL     1     -16.203  -9.374 -24.073  1.00  0.00     0.159 HD
ATOM     28  H   UNL     1     -14.965  -8.313 -24.652  1.00  0.00     0.159 HD
ENDBRANCH  22  26
ENDBRANCH   3  13
BRANCH   5  29
ATOM     29  N   UNL     1     -25.333  -3.957 -26.249  1.00  0.00    -0.322 N 
ATOM     30  H   UNL     1     -25.169  -3.208 -25.588  1.00  0.00     0.170 HD
BRANCH  29  31
ATOM     31  C   UNL     1     -26.611  -4.533 -26.220  1.00  0.00     0.078 A 
ATOM     32  C   UNL     1     -26.933  -5.659 -25.446  1.00  0.00     0.041 A 
ATOM     33  C   UNL     1     -27.617  -3.969 -27.030  1.00  0.00     0.150 A 
ATOM     34  C   UNL     1     -28.238  -6.189 -25.490  1.00  0.00     0.022 A 
ATOM     35  C   UNL     1     -28.916  -4.474 -27.107  1.00  0.00     0.089 A 
ATOM     36  C   UNL     1     -29.178  -5.581 -26.312  1.00  0.00     0.136 A 
ATOM     37  C   UNL     1     -28.915  -7.270 -24.865  1.00  0.00     0.051 A 
ATOM     38  O   UNL     1     -30.376  -6.226 -26.221  1.00  0.00    -0.464 OA
ATOM     39  C   UNL     1     -30.205  -7.252 -25.346  1.00  0.00     0.196 A 
ATOM     40  F   UNL     1     -27.318  -2.890 -27.770  1.00  0.00    -0.205 F 
ENDBRANCH  29  31
ENDBRANCH   5  29
TORSDOF 6
ENDMDL
MODEL 5
REMARK VINA RESULT:    -9.115      3.258      8.199
REMARK INTER + INTRA:         -12.847
REMARK INTER:                 -11.915
REMARK INTRA:                  -0.933
REMARK UNBOUND:                -1.068
REMARK SMILES Nc1nc(N)c2cc(-c3cc(N4CCOCC4)nc(Nc4cc5ccoc5cc4F)n3)ccc2n1
REMARK SMILES IDX 11 1 10 2 9 3 31 4 19 5 18 6 12 7 17 8 16 9 13 10 15 11
REMARK SMILES IDX 14 12 8 13 7 14 32 15 6 16 33 17 34 18 4 19 35 20 3 21 2 22
REMARK SMILES IDX 5 23 1 26 20 29 21 31 22 32 29 33 23 34 28 35 27 36 24 37
REMARK SMILES IDX 26 38 25 39 30 40
REMARK H PARENT 5 24 5 25 1 27 1 28 20 30
ROOT
ATOM      1  C   UNL     1     -20.327  -5.240 -28.135  1.00  0.00     0.134 A 
ATOM      2  C   UNL     1     -21.621  -5.398 -27.680  1.00  0.00     0.076 A 
ATOM      3  C   UNL     1     -22.641  -5.390 -28.611  1.00  0.00     0.078 A 
ATOM      4  N   UNL     1     -22.391  -5.224 -29.921  1.00  0.00    -0.213 NA
ATOM      5  C   UNL     1     -21.124  -5.050 -30.301  1.00  0.00     0.229 A 
ATOM      6  N   UNL     1     -20.092  -5.062 -29.446  1.00  0.00    -0.195 NA
ENDROOT
BRANCH   1   7
ATOM      7  N   UNL     1     -19.248  -5.211 -27.266  1.00  0.00    -0.352 N 
ATOM      8  C   UNL     1     -18.656  -3.952 -26.799  1.00  0.00     0.146 C 
ATOM      9  C   UNL     1     -18.243  -4.060 -25.320  1.00  0.00     0.181 C 
ATOM     10  C   UNL     1     -19.018  -6.386 -26.414  1.00  0.00     0.146 C 
ATOM     11  O   UNL     1     -17.322  -5.125 -25.063  1.00  0.00    -0.378 OA
ATOM     12  C   UNL     1     -17.599  -6.314 -25.824  1.00  0.00     0.181 C 
ENDBRANCH   1   7
BRANCH   3  13
ATOM     13  C   UNL     1     -24.066  -5.560 -28.259  1.00  0.00     0.001 A 
ATOM     14  C   UNL     1     -24.761  -4.649 -27.447  1.00  0.00     0.024 A 
ATOM     15  C   UNL     1     -24.801  -6.651 -28.751  1.00  0.00     0.012 A 
ATOM     16  C   UNL     1     -26.138  -4.821 -27.134  1.00  0.00     0.043 A 
ATOM     17  C   UNL     1     -26.160  -6.815 -28.448  1.00  0.00     0.030 A 
ATOM     18  C   UNL     1     -26.843  -5.911 -27.650  1.00  0.00     0.078 A 
ATOM     19  C   UNL     1     -26.896  -3.962 -26.330  1.00  0.00     0.136 A 
ATOM     20  N   UNL     1     -28.144  -6.109 -27.408  1.00  0.00    -0.213 NA
ATOM     21  N   UNL     1     -28.202  -4.138 -26.091  1.00  0.00    -0.196 NA
ATOM     22  C   UNL     1     -28.774  -5.199 -26.663  1.00  0.00     0.222 A 
BRANCH  19  23
ATOM     23  N   UNL     1     -26.330  -2.837 -25.711  1.00  0.00    -0.383 N 
ATOM     24  H   UNL     1     -25.333  -2.961 -25.563  1.00  0.00     0.158 HD
ATOM     25  H   UNL     1     -26.819  -2.709 -24.826  1.00  0.00     0.158 HD
ENDBRANCH  19  23
BRANCH  22  26
ATOM     26  N   UNL     1     -30.118  -5.404 -26.420  1.00  0.00    -0.368 N 
ATOM     27  H   UNL     1     -30.437  -6.224 -26.922  1.00  0.00     0.159 HD
ATOM     28  H   UNL     1     -30.301  -5.364 -25.427  1.00  0.00     0.159 HD
ENDBRANCH  22  26
ENDBRANCH   3  13
BRANCH   5  29
ATOM     29  N   UNL     1     -20.793  -4.866 -31.638  1.00  0.00    -0.322 N 
ATOM     30  H   UNL     1     -20.643  -3.883 -31.829  1.00  0.00     0.170 HD
BRANCH  29  31
ATOM     31  C   UNL     1     -20.610  -5.737 -32.721  1.00  0.00     0.078 A 
ATOM     32  C   UNL     1     -20.289  -7.096 -32.574  1.00  0.00     0.041 A 
ATOM     33  C   UNL     1     -20.729  -5.217 -34.026  1.00  0.00     0.150 A 
ATOM     34  C   UNL     1     -20.102  -7.899 -33.717  1.00  0.00     0.022 A 
ATOM     35  C   UNL     1     -20.540  -5.979 -35.179  1.00  0.00     0.089 A 
ATOM     36  C   UNL     1     -20.234  -7.317 -34.971  1.00  0.00     0.136 A 
ATOM     37  C   UNL     1     -19.789  -9.263 -33.956  1.00  0.00     0.051 A 
ATOM     38  O   UNL     1     -20.022  -8.244 -35.948  1.00  0.00    -0.464 OA
ATOM     39  C   UNL     1     -19.747  -9.419 -35.324  1.00  0.00     0.196 A 
ATOM     40  F   UNL     1     -21.039  -3.919 -34.175  1.00  0.00    -0.205 F 
ENDBRANCH  29  31
ENDBRANCH   5  29
TORSDOF 6
ENDMDL
MODEL 6
REMARK VINA RESULT:    -9.042      2.839      7.073
REMARK INTER + INTRA:         -12.753
REMARK INTER:                 -11.819
REMARK INTRA:                  -0.933
REMARK UNBOUND:                -1.068
REMARK SMILES Nc1nc(N)c2cc(-c3cc(N4CCOCC4)nc(Nc4cc5ccoc5cc4F)n3)ccc2n1
REMARK SMILES IDX 11 1 10 2 9 3 31 4 19 5 18 6 12 7 17 8 16 9 13 10 15 11
REMARK SMILES IDX 14 12 8 13 7 14 32 15 6 16 33 17 34 18 4 19 35 20 3 21 2 22
REMARK SMILES IDX 5 23 1 26 20 29 21 31 22 32 29 33 23 34 28 35 27 36 24 37
REMARK SMILES IDX 26 38 25 39 30 40
REMARK H PARENT 5 24 5 25 1 27 1 28 20 30
ROOT
ATOM      1  C   UNL     1     -22.427  -3.524 -29.114  1.00  0.00     0.134 A 
ATOM      2  C   UNL     1     -23.389  -3.616 -28.128  1.00  0.00     0.076 A 
ATOM      3  C   UNL     1     -22.999  -4.067 -26.882  1.00  0.00     0.078 A 
ATOM      4  N   UNL     1     -21.726  -4.416 -26.632  1.00  0.00    -0.213 NA
ATOM      5  C   UNL     1     -20.844  -4.331 -27.628  1.00  0.00     0.229 A 
ATOM      6  N   UNL     1     -21.160  -3.888 -28.853  1.00  0.00    -0.195 NA
ENDROOT
BRANCH   1   7
ATOM      7  N   UNL     1     -22.737  -3.105 -30.397  1.00  0.00    -0.352 N 
ATOM      8  C   UNL     1     -22.353  -3.877 -31.585  1.00  0.00     0.146 C 
ATOM      9  C   UNL     1     -23.467  -3.833 -32.646  1.00  0.00     0.181 C 
ATOM     10  C   UNL     1     -23.871  -2.185 -30.567  1.00  0.00     0.146 C 
ATOM     11  O   UNL     1     -23.813  -2.506 -33.054  1.00  0.00    -0.378 OA
ATOM     12  C   UNL     1     -23.811  -1.559 -31.970  1.00  0.00     0.181 C 
ENDBRANCH   1   7
BRANCH   3  13
ATOM     13  C   UNL     1     -23.925  -4.203 -25.738  1.00  0.00     0.001 A 
ATOM     14  C   UNL     1     -25.055  -5.036 -25.771  1.00  0.00     0.024 A 
ATOM     15  C   UNL     1     -23.694  -3.504 -24.541  1.00  0.00     0.012 A 
ATOM     16  C   UNL     1     -25.925  -5.165 -24.654  1.00  0.00     0.043 A 
ATOM     17  C   UNL     1     -24.547  -3.639 -23.438  1.00  0.00     0.030 A 
ATOM     18  C   UNL     1     -25.659  -4.467 -23.474  1.00  0.00     0.078 A 
ATOM     19  C   UNL     1     -27.071  -5.969 -24.611  1.00  0.00     0.136 A 
ATOM     20  N   UNL     1     -26.430  -4.569 -22.385  1.00  0.00    -0.213 NA
ATOM     21  N   UNL     1     -27.842  -6.095 -23.524  1.00  0.00    -0.196 NA
ATOM     22  C   UNL     1     -27.472  -5.401 -22.447  1.00  0.00     0.222 A 
BRANCH  19  23
ATOM     23  N   UNL     1     -27.493  -6.712 -25.724  1.00  0.00    -0.383 N 
ATOM     24  H   UNL     1     -26.761  -6.773 -26.426  1.00  0.00     0.158 HD
ATOM     25  H   UNL     1     -28.320  -6.245 -26.095  1.00  0.00     0.158 HD
ENDBRANCH  19  23
BRANCH  22  26
ATOM     26  N   UNL     1     -28.260  -5.508 -21.319  1.00  0.00    -0.368 N 
ATOM     27  H   UNL     1     -28.167  -4.674 -20.753  1.00  0.00     0.159 HD
ATOM     28  H   UNL     1     -29.195  -5.796 -21.575  1.00  0.00     0.159 HD
ENDBRANCH  22  26
ENDBRANCH   3  13
BRANCH   5  29
ATOM     29  N   UNL     1     -19.512  -4.683 -27.444  1.00  0.00    -0.322 N 
ATOM     30  H   UNL     1     -18.911  -4.076 -27.987  1.00  0.00     0.170 HD
BRANCH  29  31
ATOM     31  C   UNL     1     -18.864  -5.656 -26.669  1.00  0.00     0.078 A 
ATOM     32  C   UNL     1     -19.332  -6.973 -26.534  1.00  0.00     0.041 A 
ATOM     33  C   UNL     1     -17.698  -5.287 -25.969  1.00  0.00     0.150 A 
ATOM     34  C   UNL     1     -18.632  -7.885 -25.719  1.00  0.00     0.022 A 
ATOM     35  C   UNL     1     -16.986  -6.159 -25.144  1.00  0.00     0.089 A 
ATOM     36  C   UNL     1     -17.491  -7.449 -25.058  1.00  0.00     0.136 A 
ATOM     37  C   UNL     1     -18.789  -9.250 -25.359  1.00  0.00     0.051 A 
ATOM     38  O   UNL     1     -16.951  -8.465 -24.325  1.00  0.00    -0.464 OA
ATOM     39  C   UNL     1     -17.747  -9.550 -24.509  1.00  0.00     0.196 A 
ATOM     40  F   UNL     1     -17.243  -4.030 -26.096  1.00  0.00    -0.205 F 
ENDBRANCH  29  31
ENDBRANCH   5  29
TORSDOF 6
ENDMDL
MODEL 7
REMARK VINA RESULT:    -8.964      2.821      7.085
REMARK INTER + INTRA:         -12.653
REMARK INTER:                 -11.729
REMARK INTRA:                  -0.923
REMARK UNBOUND:                -1.068
REMARK SMILES Nc1nc(N)c2cc(-c3cc(N4CCOCC4)nc(Nc4cc5ccoc5cc4F)n3)ccc2n1
REMARK SMILES IDX 11 1 10 2 9 3 31 4 19 5 18 6 12 7 17 8 16 9 13 10 15 11
REMARK SMILES IDX 14 12 8 13 7 14 32 15 6 16 33 17 34 18 4 19 35 20 3 21 2 22
REMARK SMILES IDX 5 23 1 26 20 29 21 31 22 32 29 33 23 34 28 35 27 36 24 37
REMARK SMILES IDX 26 38 25 39 30 40
REMARK H PARENT 5 24 5 25 1 27 1 28 20 30
ROOT
ATOM      1  C   UNL     1     -23.017  -3.605 -28.872  1.00  0.00     0.134 A 
ATOM      2  C   UNL     1     -24.174  -3.900 -28.179  1.00  0.00     0.076 A 
ATOM      3  C   UNL     1     -24.054  -4.344 -26.876  1.00  0.00     0.078 A 
ATOM      4  N   UNL     1     -22.851  -4.494 -26.297  1.00  0.00    -0.213 NA
ATOM      5  C   UNL     1     -21.766  -4.219 -27.022  1.00  0.00     0.229 A 
ATOM      6  N   UNL     1     -21.820  -3.772 -28.285  1.00  0.00    -0.195 NA
ENDROOT
BRANCH   1   7
ATOM      7  N   UNL     1     -23.047  -3.180 -30.190  1.00  0.00    -0.352 N 
ATOM      8  C   UNL     1     -22.398  -3.934 -31.269  1.00  0.00     0.146 C 
ATOM      9  C   UNL     1     -23.253  -3.898 -32.548  1.00  0.00     0.181 C 
ATOM     10  C   UNL     1     -24.132  -2.277 -30.599  1.00  0.00     0.146 C 
ATOM     11  O   UNL     1     -23.526  -2.574 -33.014  1.00  0.00    -0.378 OA
ATOM     12  C   UNL     1     -23.778  -1.637 -31.951  1.00  0.00     0.181 C 
ENDBRANCH   1   7
BRANCH   3  13
ATOM     13  C   UNL     1     -25.211  -4.683 -26.021  1.00  0.00     0.001 A 
ATOM     14  C   UNL     1     -26.458  -5.060 -26.546  1.00  0.00     0.024 A 
ATOM     15  C   UNL     1     -25.098  -4.662 -24.621  1.00  0.00     0.012 A 
ATOM     16  C   UNL     1     -27.554  -5.398 -25.706  1.00  0.00     0.043 A 
ATOM     17  C   UNL     1     -26.177  -5.005 -23.795  1.00  0.00     0.030 A 
ATOM     18  C   UNL     1     -27.405  -5.381 -24.317  1.00  0.00     0.078 A 
ATOM     19  C   UNL     1     -28.826  -5.777 -26.152  1.00  0.00     0.136 A 
ATOM     20  N   UNL     1     -28.394  -5.713 -23.481  1.00  0.00    -0.213 NA
ATOM     21  N   UNL     1     -29.821  -6.129 -25.328  1.00  0.00    -0.196 NA
ATOM     22  C   UNL     1     -29.551  -6.101 -24.022  1.00  0.00     0.222 A 
BRANCH  19  23
ATOM     23  N   UNL     1     -29.148  -5.818 -27.518  1.00  0.00    -0.383 N 
ATOM     24  H   UNL     1     -28.329  -6.024 -28.083  1.00  0.00     0.158 HD
ATOM     25  H   UNL     1     -29.539  -4.908 -27.756  1.00  0.00     0.158 HD
ENDBRANCH  19  23
BRANCH  22  26
ATOM     26  N   UNL     1     -30.567  -6.449 -23.155  1.00  0.00    -0.368 N 
ATOM     27  H   UNL     1     -30.283  -7.241 -22.592  1.00  0.00     0.159 HD
ATOM     28  H   UNL     1     -30.906  -5.629 -22.670  1.00  0.00     0.159 HD
ENDBRANCH  22  26
ENDBRANCH   3  13
BRANCH   5  29
ATOM     29  N   UNL     1     -20.489  -4.359 -26.491  1.00  0.00    -0.322 N 
ATOM     30  H   UNL     1     -20.076  -3.450 -26.326  1.00  0.00     0.170 HD
BRANCH  29  31
ATOM     31  C   UNL     1     -19.704  -5.464 -26.132  1.00  0.00     0.078 A 
ATOM     32  C   UNL     1     -20.207  -6.772 -26.039  1.00  0.00     0.041 A 
ATOM     33  C   UNL     1     -18.346  -5.248 -25.824  1.00  0.00     0.150 A 
ATOM     34  C   UNL     1     -19.355  -7.824 -25.652  1.00  0.00     0.022 A 
ATOM     35  C   UNL     1     -17.476  -6.264 -25.426  1.00  0.00     0.089 A 
ATOM     36  C   UNL     1     -18.028  -7.536 -25.362  1.00  0.00     0.136 A 
ATOM     37  C   UNL     1     -19.495  -9.225 -25.462  1.00  0.00     0.051 A 
ATOM     38  O   UNL     1     -17.361  -8.673 -25.011  1.00  0.00    -0.464 OA
ATOM     39  C   UNL     1     -18.260  -9.690 -25.069  1.00  0.00     0.196 A 
ATOM     40  F   UNL     1     -17.857  -4.001 -25.914  1.00  0.00    -0.205 F 
ENDBRANCH  29  31
ENDBRANCH   5  29
TORSDOF 6
ENDMDL
MODEL 8
REMARK VINA RESULT:    -8.946      3.383      8.731
REMARK INTER + INTRA:         -12.630
REMARK INTER:                 -11.737
REMARK INTRA:                  -0.892
REMARK UNBOUND:                -1.068
REMARK SMILES Nc1nc(N)c2cc(-c3cc(N4CCOCC4)nc(Nc4cc5ccoc5cc4F)n3)ccc2n1
REMARK SMILES IDX 11 1 10 2 9 3 31 4 19 5 18 6 12 7 17 8 16 9 13 10 15 11
REMARK SMILES IDX 14 12 8 13 7 14 32 15 6 16 33 17 34 18 4 19 35 20 3 21 2 22
REMARK SMILES IDX 5 23 1 26 20 29 21 31 22 32 29 33 23 34 28 35 27 36 24 37
REMARK SMILES IDX 26 38 25 39 30 40
REMARK H PARENT 5 24 5 25 1 27 1 28 20 30
ROOT
ATOM      1  C   UNL     1     -21.121  -4.645 -26.367  1.00  0.00     0.134 A 
ATOM      2  C   UNL     1     -22.242  -4.899 -25.603  1.00  0.00     0.076 A 
ATOM      3  C   UNL     1     -23.474  -4.558 -26.125  1.00  0.00     0.078 A 
ATOM      4  N   UNL     1     -23.586  -3.988 -27.337  1.00  0.00    -0.213 NA
ATOM      5  C   UNL     1     -22.468  -3.741 -28.021  1.00  0.00     0.229 A 
ATOM      6  N   UNL     1     -21.246  -4.062 -27.572  1.00  0.00    -0.195 NA
ENDROOT
BRANCH   1   7
ATOM      7  N   UNL     1     -19.846  -4.932 -25.908  1.00  0.00    -0.352 N 
ATOM      8  C   UNL     1     -19.472  -6.267 -25.424  1.00  0.00     0.146 C 
ATOM      9  C   UNL     1     -18.041  -6.624 -25.862  1.00  0.00     0.181 C 
ATOM     10  C   UNL     1     -18.739  -4.082 -26.370  1.00  0.00     0.146 C 
ATOM     11  O   UNL     1     -17.058  -5.683 -25.419  1.00  0.00    -0.378 OA
ATOM     12  C   UNL     1     -17.511  -4.318 -25.475  1.00  0.00     0.181 C 
ENDBRANCH   1   7
BRANCH   3  13
ATOM     13  C   UNL     1     -24.751  -4.786 -25.417  1.00  0.00     0.001 A 
ATOM     14  C   UNL     1     -25.885  -5.320 -26.050  1.00  0.00     0.024 A 
ATOM     15  C   UNL     1     -24.875  -4.490 -24.049  1.00  0.00     0.012 A 
ATOM     16  C   UNL     1     -27.100  -5.547 -25.346  1.00  0.00     0.043 A 
ATOM     17  C   UNL     1     -26.070  -4.723 -23.355  1.00  0.00     0.030 A 
ATOM     18  C   UNL     1     -27.186  -5.254 -23.983  1.00  0.00     0.078 A 
ATOM     19  C   UNL     1     -28.272  -6.070 -25.906  1.00  0.00     0.136 A 
ATOM     20  N   UNL     1     -28.295  -5.470 -23.267  1.00  0.00    -0.213 NA
ATOM     21  N   UNL     1     -29.384  -6.307 -25.200  1.00  0.00    -0.196 NA
ATOM     22  C   UNL     1     -29.337  -6.014 -23.899  1.00  0.00     0.222 A 
BRANCH  19  23
ATOM     23  N   UNL     1     -28.360  -6.390 -27.270  1.00  0.00    -0.383 N 
ATOM     24  H   UNL     1     -28.385  -7.395 -27.412  1.00  0.00     0.158 HD
ATOM     25  H   UNL     1     -27.546  -5.976 -27.723  1.00  0.00     0.158 HD
ENDBRANCH  19  23
BRANCH  22  26
ATOM     26  N   UNL     1     -30.478  -6.241 -23.155  1.00  0.00    -0.368 N 
ATOM     27  H   UNL     1     -30.239  -6.723 -22.297  1.00  0.00     0.159 HD
ATOM     28  H   UNL     1     -31.016  -5.389 -23.077  1.00  0.00     0.159 HD
ENDBRANCH  22  26
ENDBRANCH   3  13
BRANCH   5  29
ATOM     29  N   UNL     1     -22.507  -3.147 -29.276  1.00  0.00    -0.322 N 
ATOM     30  H   UNL     1     -22.740  -2.165 -29.191  1.00  0.00     0.170 HD
BRANCH  29  31
ATOM     31  C   UNL     1     -22.275  -3.613 -30.578  1.00  0.00     0.078 A 
ATOM     32  C   UNL     1     -21.209  -4.463 -30.915  1.00  0.00     0.041 A 
ATOM     33  C   UNL     1     -23.139  -3.186 -31.606  1.00  0.00     0.150 A 
ATOM     34  C   UNL     1     -21.034  -4.869 -32.253  1.00  0.00     0.022 A 
ATOM     35  C   UNL     1     -22.989  -3.558 -32.943  1.00  0.00     0.089 A 
ATOM     36  C   UNL     1     -21.925  -4.407 -33.213  1.00  0.00     0.136 A 
ATOM     37  C   UNL     1     -20.114  -5.698 -32.948  1.00  0.00     0.051 A 
ATOM     38  O   UNL     1     -21.600  -4.906 -34.440  1.00  0.00    -0.464 OA
ATOM     39  C   UNL     1     -20.498  -5.682 -34.271  1.00  0.00     0.196 A 
ATOM     40  F   UNL     1     -24.162  -2.375 -31.291  1.00  0.00    -0.205 F 
ENDBRANCH  29  31
ENDBRANCH   5  29
TORSDOF 6
ENDMDL
MODEL 9
REMARK VINA RESULT:    -8.861      2.630      6.723
REMARK INTER + INTRA:         -12.520
REMARK INTER:                 -11.537
REMARK INTRA:                  -0.983
REMARK UNBOUND:                -1.068
REMARK SMILES Nc1nc(N)c2cc(-c3cc(N4CCOCC4)nc(Nc4cc5ccoc5cc4F)n3)ccc2n1
REMARK SMILES IDX 11 1 10 2 9 3 31 4 19 5 18 6 12 7 17 8 16 9 13 10 15 11
REMARK SMILES IDX 14 12 8 13 7 14 32 15 6 16 33 17 34 18 4 19 35 20 3 21 2 22
REMARK SMILES IDX 5 23 1 26 20 29 21 31 22 32 29 33 23 34 28 35 27 36 24 37
REMARK SMILES IDX 26 38 25 39 30 40
REMARK H PARENT 5 24 5 25 1 27 1 28 20 30
ROOT
ATOM      1  C   UNL     1     -22.087  -4.535 -29.562  1.00  0.00     0.134 A 
ATOM      2  C   UNL     1     -23.406  -4.668 -29.175  1.00  0.00     0.076 A 
ATOM      3  C   UNL     1     -23.686  -4.697 -27.823  1.00  0.00     0.078 A 
ATOM      4  N   UNL     1     -22.708  -4.608 -26.905  1.00  0.00    -0.213 NA
ATOM      5  C   UNL     1     -21.450  -4.507 -27.336  1.00  0.00     0.229 A 
ATOM      6  N   UNL     1     -21.119  -4.460 -28.634  1.00  0.00    -0.195 NA
ENDROOT
BRANCH   1   7
ATOM      7  N   UNL     1     -21.718  -4.523 -30.897  1.00  0.00    -0.352 N 
ATOM      8  C   UNL     1     -20.462  -5.121 -31.365  1.00  0.00     0.146 C 
ATOM      9  C   UNL     1     -20.664  -5.820 -32.721  1.00  0.00     0.181 C 
ATOM     10  C   UNL     1     -22.779  -4.384 -31.905  1.00  0.00     0.146 C 
ATOM     11  O   UNL     1     -21.167  -4.953 -33.741  1.00  0.00    -0.378 OA
ATOM     12  C   UNL     1     -22.148  -4.017 -33.258  1.00  0.00     0.181 C 
ENDBRANCH   1   7
BRANCH   3  13
ATOM     13  C   UNL     1     -25.053  -4.824 -27.276  1.00  0.00     0.001 A 
ATOM     14  C   UNL     1     -25.945  -5.826 -27.689  1.00  0.00     0.024 A 
ATOM     15  C   UNL     1     -25.513  -3.940 -26.285  1.00  0.00     0.012 A 
ATOM     16  C   UNL     1     -27.251  -5.941 -27.138  1.00  0.00     0.043 A 
ATOM     17  C   UNL     1     -26.798  -4.061 -25.737  1.00  0.00     0.030 A 
ATOM     18  C   UNL     1     -27.674  -5.055 -26.145  1.00  0.00     0.078 A 
ATOM     19  C   UNL     1     -28.198  -6.907 -27.501  1.00  0.00     0.136 A 
ATOM     20  N   UNL     1     -28.882  -5.132 -25.575  1.00  0.00    -0.213 NA
ATOM     21  N   UNL     1     -29.404  -7.008 -26.928  1.00  0.00    -0.196 NA
ATOM     22  C   UNL     1     -29.684  -6.122 -25.970  1.00  0.00     0.222 A 
BRANCH  19  23
ATOM     23  N   UNL     1     -27.940  -7.854 -28.504  1.00  0.00    -0.383 N 
ATOM     24  H   UNL     1     -28.138  -8.797 -28.181  1.00  0.00     0.158 HD
ATOM     25  H   UNL     1     -26.959  -7.752 -28.761  1.00  0.00     0.158 HD
ENDBRANCH  19  23
BRANCH  22  26
ATOM     26  N   UNL     1     -30.928  -6.201 -25.375  1.00  0.00    -0.368 N 
ATOM     27  H   UNL     1     -31.105  -5.363 -24.836  1.00  0.00     0.159 HD
ATOM     28  H   UNL     1     -31.622  -6.475 -26.057  1.00  0.00     0.159 HD
ENDBRANCH  22  26
ENDBRANCH   3  13
BRANCH   5  29
ATOM     29  N   UNL     1     -20.388  -4.420 -26.444  1.00  0.00    -0.322 N 
ATOM     30  H   UNL     1     -20.380  -3.512 -25.997  1.00  0.00     0.170 HD
BRANCH  29  31
ATOM     31  C   UNL     1     -19.383  -5.311 -26.041  1.00  0.00     0.078 A 
ATOM     32  C   UNL     1     -19.606  -6.680 -25.825  1.00  0.00     0.041 A 
ATOM     33  C   UNL     1     -18.088  -4.803 -25.817  1.00  0.00     0.150 A 
ATOM     34  C   UNL     1     -18.546  -7.505 -25.401  1.00  0.00     0.022 A 
ATOM     35  C   UNL     1     -17.016  -5.587 -25.386  1.00  0.00     0.089 A 
ATOM     36  C   UNL     1     -17.296  -6.933 -25.200  1.00  0.00     0.136 A 
ATOM     37  C   UNL     1     -18.392  -8.884 -25.099  1.00  0.00     0.051 A 
ATOM     38  O   UNL     1     -16.401  -7.881 -24.797  1.00  0.00    -0.464 OA
ATOM     39  C   UNL     1     -17.076  -9.058 -24.733  1.00  0.00     0.196 A 
ATOM     40  F   UNL     1     -17.865  -3.495 -26.026  1.00  0.00    -0.205 F 
ENDBRANCH  29  31
ENDBRANCH   5  29
TORSDOF 6
ENDMDL
MODEL 10
REMARK VINA RESULT:    -8.815      3.431      8.093
REMARK INTER + INTRA:         -12.460
REMARK INTER:                 -11.494
REMARK INTRA:                  -0.966
REMARK UNBOUND:                -1.068
REMARK SMILES Nc1nc(N)c2cc(-c3cc(N4CCOCC4)nc(Nc4cc5ccoc5cc4F)n3)ccc2n1
REMARK SMILES IDX 11 1 10 2 9 3 31 4 19 5 18 6 12 7 17 8 16 9 13 10 15 11
REMARK SMILES IDX 14 12 8 13 7 14 32 15 6 16 33 17 34 18 4 19 35 20 3 21 2 22
REMARK SMILES IDX 5 23 1 26 20 29 21 31 22 32 29 33 23 34 28 35 27 36 24 37
REMARK SMILES IDX 26 38 25 39 30 40
REMARK H PARENT 5 24 5 25 1 27 1 28 20 30
ROOT
ATOM      1  C   UNL     1     -20.165  -5.759 -27.509  1.00  0.00     0.134 A 
ATOM      2  C   UNL     1     -21.435  -5.380 -27.120  1.00  0.00     0.076 A 
ATOM      3  C   UNL     1     -22.500  -5.783 -27.902  1.00  0.00     0.078 A 
ATOM      4  N   UNL     1     -22.313  -6.515 -29.014  1.00  0.00    -0.213 NA
ATOM      5  C   UNL     1     -21.063  -6.831 -29.355  1.00  0.00     0.229 A 
ATOM      6  N   UNL     1     -19.992  -6.480 -28.629  1.00  0.00    -0.195 NA
ENDROOT
BRANCH   1   7
ATOM      7  N   UNL     1     -19.041  -5.376 -26.796  1.00  0.00    -0.352 N 
ATOM      8  C   UNL     1     -18.684  -3.966 -26.599  1.00  0.00     0.146 C 
ATOM      9  C   UNL     1     -18.124  -3.739 -25.184  1.00  0.00     0.181 C 
ATOM     10  C   UNL     1     -18.493  -6.322 -25.813  1.00  0.00     0.146 C 
ATOM     11  O   UNL     1     -16.981  -4.547 -24.887  1.00  0.00    -0.378 OA
ATOM     12  C   UNL     1     -17.073  -5.880 -25.422  1.00  0.00     0.181 C 
ENDBRANCH   1   7
BRANCH   3  13
ATOM     13  C   UNL     1     -23.907  -5.455 -27.594  1.00  0.00     0.001 A 
ATOM     14  C   UNL     1     -24.980  -6.275 -27.981  1.00  0.00     0.024 A 
ATOM     15  C   UNL     1     -24.232  -4.296 -26.869  1.00  0.00     0.012 A 
ATOM     16  C   UNL     1     -26.327  -5.950 -27.660  1.00  0.00     0.043 A 
ATOM     17  C   UNL     1     -25.559  -3.982 -26.546  1.00  0.00     0.030 A 
ATOM     18  C   UNL     1     -26.614  -4.797 -26.926  1.00  0.00     0.078 A 
ATOM     19  C   UNL     1     -27.447  -6.712 -28.013  1.00  0.00     0.136 A 
ATOM     20  N   UNL     1     -27.859  -4.456 -26.576  1.00  0.00    -0.213 NA
ATOM     21  N   UNL     1     -28.697  -6.393 -27.656  1.00  0.00    -0.196 NA
ATOM     22  C   UNL     1     -28.845  -5.283 -26.931  1.00  0.00     0.222 A 
BRANCH  19  23
ATOM     23  N   UNL     1     -27.332  -7.885 -28.776  1.00  0.00    -0.383 N 
ATOM     24  H   UNL     1     -27.412  -7.688 -29.769  1.00  0.00     0.158 HD
ATOM     25  H   UNL     1     -28.073  -8.512 -28.466  1.00  0.00     0.158 HD
ENDBRANCH  19  23
BRANCH  22  26
ATOM     26  N   UNL     1     -30.127  -4.930 -26.563  1.00  0.00    -0.368 N 
ATOM     27  H   UNL     1     -30.100  -4.356 -25.729  1.00  0.00     0.159 HD
ATOM     28  H   UNL     1     -30.631  -4.569 -27.362  1.00  0.00     0.159 HD
ENDBRANCH  22  26
ENDBRANCH   3  13
BRANCH   5  29
ATOM     29  N   UNL     1     -20.795  -7.578 -30.496  1.00  0.00    -0.322 N 
ATOM     30  H   UNL     1     -20.948  -8.562 -30.314  1.00  0.00     0.170 HD
BRANCH  29  31
ATOM     31  C   UNL     1     -20.393  -7.249 -31.798  1.00  0.00     0.078 A 
ATOM     32  C   UNL     1     -20.665  -6.011 -32.401  1.00  0.00     0.041 A 
ATOM     33  C   UNL     1     -19.703  -8.220 -32.552  1.00  0.00     0.150 A 
ATOM     34  C   UNL     1     -20.244  -5.768 -33.724  1.00  0.00     0.022 A 
ATOM     35  C   UNL     1     -19.281  -8.019 -33.866  1.00  0.00     0.089 A 
ATOM     36  C   UNL     1     -19.570  -6.773 -34.405  1.00  0.00     0.136 A 
ATOM     37  C   UNL     1     -20.327  -4.677 -34.630  1.00  0.00     0.051 A 
ATOM     38  O   UNL     1     -19.241  -6.356 -35.661  1.00  0.00    -0.464 OA
ATOM     39  C   UNL     1     -19.709  -5.087 -35.790  1.00  0.00     0.196 A 
ATOM     40  F   UNL     1     -19.436  -9.406 -31.981  1.00  0.00    -0.205 F 
ENDBRANCH  29  31
ENDBRANCH   5  29
TORSDOF 6
ENDMDL
MODEL 11
REMARK VINA RESULT:    -8.814      3.425      7.542
REMARK INTER + INTRA:         -12.458
REMARK INTER:                 -11.417
REMARK INTRA:                  -1.041
REMARK UNBOUND:                -1.068
REMARK SMILES Nc1nc(N)c2cc(-c3cc(N4CCOCC4)nc(Nc4cc5ccoc5cc4F)n3)ccc2n1
REMARK SMILES IDX 11 1 10 2 9 3 31 4 19 5 18 6 12 7 17 8 16 9 13 10 15 11
REMARK SMILES IDX 14 12 8 13 7 14 32 15 6 16 33 17 34 18 4 19 35 20 3 21 2 22
REMARK SMILES IDX 5 23 1 26 20 29 21 31 22 32 29 33 23 34 28 35 27 36 24 37
REMARK SMILES IDX 26 38 25 39 30 40
REMARK H PARENT 5 24 5 25 1 27 1 28 20 30
ROOT
ATOM      1  C   UNL     1     -22.774  -3.587 -29.006  1.00  0.00     0.134 A 
ATOM      2  C   UNL     1     -21.562  -4.099 -28.584  1.00  0.00     0.076 A 
ATOM      3  C   UNL     1     -21.461  -4.531 -27.277  1.00  0.00     0.078 A 
ATOM      4  N   UNL     1     -22.503  -4.451 -26.431  1.00  0.00    -0.213 NA
ATOM      5  C   UNL     1     -23.641  -3.925 -26.885  1.00  0.00     0.229 A 
ATOM      6  N   UNL     1     -23.803  -3.502 -28.147  1.00  0.00    -0.195 NA
ENDROOT
BRANCH   1   7
ATOM      7  N   UNL     1     -22.953  -3.109 -30.294  1.00  0.00    -0.352 N 
ATOM      8  C   UNL     1     -22.493  -3.851 -31.474  1.00  0.00     0.146 C 
ATOM      9  C   UNL     1     -23.506  -3.723 -32.626  1.00  0.00     0.181 C 
ATOM     10  C   UNL     1     -24.034  -2.140 -30.524  1.00  0.00     0.146 C 
ATOM     11  O   UNL     1     -23.766  -2.369 -33.007  1.00  0.00    -0.378 OA
ATOM     12  C   UNL     1     -23.827  -1.464 -31.890  1.00  0.00     0.181 C 
ENDBRANCH   1   7
BRANCH   3  13
ATOM     13  C   UNL     1     -20.227  -5.107 -26.702  1.00  0.00     0.001 A 
ATOM     14  C   UNL     1     -20.148  -6.435 -26.253  1.00  0.00     0.024 A 
ATOM     15  C   UNL     1     -19.056  -4.338 -26.600  1.00  0.00     0.012 A 
ATOM     16  C   UNL     1     -18.947  -6.976 -25.719  1.00  0.00     0.043 A 
ATOM     17  C   UNL     1     -17.870  -4.876 -26.082  1.00  0.00     0.030 A 
ATOM     18  C   UNL     1     -17.795  -6.189 -25.644  1.00  0.00     0.078 A 
ATOM     19  C   UNL     1     -18.790  -8.285 -25.247  1.00  0.00     0.136 A 
ATOM     20  N   UNL     1     -16.633  -6.653 -25.172  1.00  0.00    -0.213 NA
ATOM     21  N   UNL     1     -17.630  -8.770 -24.788  1.00  0.00    -0.196 NA
ATOM     22  C   UNL     1     -16.592  -7.931 -24.792  1.00  0.00     0.222 A 
BRANCH  19  23
ATOM     23  N   UNL     1     -19.859  -9.196 -25.227  1.00  0.00    -0.383 N 
ATOM     24  H   UNL     1     -20.176  -9.370 -24.277  1.00  0.00     0.158 HD
ATOM     25  H   UNL     1     -19.524 -10.053 -25.665  1.00  0.00     0.158 HD
ENDBRANCH  19  23
BRANCH  22  26
ATOM     26  N   UNL     1     -15.388  -8.408 -24.312  1.00  0.00    -0.368 N 
ATOM     27  H   UNL     1     -15.413  -8.451 -23.301  1.00  0.00     0.159 HD
ATOM     28  H   UNL     1     -15.124  -9.247 -24.809  1.00  0.00     0.159 HD
ENDBRANCH  22  26
ENDBRANCH   3  13
BRANCH   5  29
ATOM     29  N   UNL     1     -24.756  -3.804 -26.065  1.00  0.00    -0.322 N 
ATOM     30  H   UNL     1     -25.354  -3.057 -26.394  1.00  0.00     0.170 HD
BRANCH  29  31
ATOM     31  C   UNL     1     -25.209  -4.499 -24.935  1.00  0.00     0.078 A 
ATOM     32  C   UNL     1     -24.750  -4.239 -23.633  1.00  0.00     0.041 A 
ATOM     33  C   UNL     1     -26.154  -5.529 -25.115  1.00  0.00     0.150 A 
ATOM     34  C   UNL     1     -25.241  -4.998 -22.553  1.00  0.00     0.022 A 
ATOM     35  C   UNL     1     -26.653  -6.309 -24.071  1.00  0.00     0.089 A 
ATOM     36  C   UNL     1     -26.170  -5.998 -22.807  1.00  0.00     0.136 A 
ATOM     37  C   UNL     1     -25.027  -5.020 -21.148  1.00  0.00     0.051 A 
ATOM     38  O   UNL     1     -26.530  -6.618 -21.646  1.00  0.00    -0.464 OA
ATOM     39  C   UNL     1     -25.827  -6.023 -20.648  1.00  0.00     0.196 A 
ATOM     40  F   UNL     1     -26.600  -5.782 -26.356  1.00  0.00    -0.205 F 
ENDBRANCH  29  31
ENDBRANCH   5  29
TORSDOF 6
ENDMDL
MODEL 12
REMARK VINA RESULT:    -8.812      3.176      8.292
REMARK INTER + INTRA:         -12.456
REMARK INTER:                 -11.516
REMARK INTRA:                  -0.940
REMARK UNBOUND:                -1.068
REMARK SMILES Nc1nc(N)c2cc(-c3cc(N4CCOCC4)nc(Nc4cc5ccoc5cc4F)n3)ccc2n1
REMARK SMILES IDX 11 1 10 2 9 3 31 4 19 5 18 6 12 7 17 8 16 9 13 10 15 11
REMARK SMILES IDX 14 12 8 13 7 14 32 15 6 16 33 17 34 18 4 19 35 20 3 21 2 22
REMARK SMILES IDX 5 23 1 26 20 29 21 31 22 32 29 33 23 34 28 35 27 36 24 37
REMARK SMILES IDX 26 38 25 39 30 40
REMARK H PARENT 5 24 5 25 1 27 1 28 20 30
ROOT
ATOM      1  C   UNL     1     -20.756  -5.197 -27.106  1.00  0.00     0.134 A 
ATOM      2  C   UNL     1     -22.013  -5.482 -26.611  1.00  0.00     0.076 A 
ATOM      3  C   UNL     1     -23.092  -5.333 -27.459  1.00  0.00     0.078 A 
ATOM      4  N   UNL     1     -22.934  -4.915 -28.726  1.00  0.00    -0.213 NA
ATOM      5  C   UNL     1     -21.700  -4.630 -29.143  1.00  0.00     0.229 A 
ATOM      6  N   UNL     1     -20.612  -4.767 -28.371  1.00  0.00    -0.195 NA
ENDROOT
BRANCH   1   7
ATOM      7  N   UNL     1     -19.622  -5.295 -26.315  1.00  0.00    -0.352 N 
ATOM      8  C   UNL     1     -19.253  -6.540 -25.632  1.00  0.00     0.146 C 
ATOM      9  C   UNL     1     -17.728  -6.745 -25.659  1.00  0.00     0.181 C 
ATOM     10  C   UNL     1     -18.527  -4.346 -26.559  1.00  0.00     0.146 C 
ATOM     11  O   UNL     1     -16.997  -5.664 -25.071  1.00  0.00    -0.378 OA
ATOM     12  C   UNL     1     -17.558  -4.372 -25.365  1.00  0.00     0.181 C 
ENDBRANCH   1   7
BRANCH   3  13
ATOM     13  C   UNL     1     -24.487  -5.615 -27.059  1.00  0.00     0.001 A 
ATOM     14  C   UNL     1     -25.516  -4.667 -27.177  1.00  0.00     0.024 A 
ATOM     15  C   UNL     1     -24.848  -6.876 -26.555  1.00  0.00     0.012 A 
ATOM     16  C   UNL     1     -26.856  -4.963 -26.803  1.00  0.00     0.043 A 
ATOM     17  C   UNL     1     -26.170  -7.168 -26.194  1.00  0.00     0.030 A 
ATOM     18  C   UNL     1     -27.184  -6.231 -26.317  1.00  0.00     0.078 A 
ATOM     19  C   UNL     1     -27.933  -4.072 -26.886  1.00  0.00     0.136 A 
ATOM     20  N   UNL     1     -28.431  -6.571 -25.972  1.00  0.00    -0.213 NA
ATOM     21  N   UNL     1     -29.189  -4.403 -26.561  1.00  0.00    -0.196 NA
ATOM     22  C   UNL     1     -29.385  -5.652 -26.136  1.00  0.00     0.222 A 
BRANCH  19  23
ATOM     23  N   UNL     1     -27.766  -2.750 -27.326  1.00  0.00    -0.383 N 
ATOM     24  H   UNL     1     -28.225  -2.599 -28.220  1.00  0.00     0.158 HD
ATOM     25  H   UNL     1     -26.763  -2.587 -27.397  1.00  0.00     0.158 HD
ENDBRANCH  19  23
BRANCH  22  26
ATOM     26  N   UNL     1     -30.672  -6.010 -25.785  1.00  0.00    -0.368 N 
ATOM     27  H   UNL     1     -30.691  -6.979 -25.489  1.00  0.00     0.159 HD
ATOM     28  H   UNL     1     -31.064  -5.322 -25.157  1.00  0.00     0.159 HD
ENDBRANCH  22  26
ENDBRANCH   3  13
BRANCH   5  29
ATOM     29  N   UNL     1     -21.461  -4.185 -30.438  1.00  0.00    -0.322 N 
ATOM     30  H   UNL     1     -21.468  -3.173 -30.468  1.00  0.00     0.170 HD
BRANCH  29  31
ATOM     31  C   UNL     1     -21.202  -4.834 -31.654  1.00  0.00     0.078 A 
ATOM     32  C   UNL     1     -20.414  -5.991 -31.760  1.00  0.00     0.041 A 
ATOM     33  C   UNL     1     -21.739  -4.282 -32.835  1.00  0.00     0.150 A 
ATOM     34  C   UNL     1     -20.186  -6.570 -33.024  1.00  0.00     0.022 A 
ATOM     35  C   UNL     1     -21.524  -4.820 -34.104  1.00  0.00     0.089 A 
ATOM     36  C   UNL     1     -20.746  -5.969 -34.144  1.00  0.00     0.136 A 
ATOM     37  C   UNL     1     -19.477  -7.702 -33.508  1.00  0.00     0.051 A 
ATOM     38  O   UNL     1     -20.421  -6.668 -35.269  1.00  0.00    -0.464 OA
ATOM     39  C   UNL     1     -19.647  -7.713 -34.874  1.00  0.00     0.196 A 
ATOM     40  F   UNL     1     -22.497  -3.177 -32.741  1.00  0.00    -0.205 F 
ENDBRANCH  29  31
ENDBRANCH   5  29
TORSDOF 6
ENDMDL
MODEL 13
REMARK VINA RESULT:    -8.781      3.363      7.840
REMARK INTER + INTRA:         -12.416
REMARK INTER:                 -11.433
REMARK INTRA:                  -0.983
REMARK UNBOUND:                -1.068
REMARK SMILES Nc1nc(N)c2cc(-c3cc(N4CCOCC4)nc(Nc4cc5ccoc5cc4F)n3)ccc2n1
REMARK SMILES IDX 11 1 10 2 9 3 31 4 19 5 18 6 12 7 17 8 16 9 13 10 15 11
REMARK SMILES IDX 14 12 8 13 7 14 32 15 6 16 33 17 34 18 4 19 35 20 3 21 2 22
REMARK SMILES IDX 5 23 1 26 20 29 21 31 22 32 29 33 23 34 28 35 27 36 24 37
REMARK SMILES IDX 26 38 25 39 30 40
REMARK H PARENT 5 24 5 25 1 27 1 28 20 30
ROOT
ATOM      1  C   UNL     1     -23.363  -3.911 -28.973  1.00  0.00     0.134 A 
ATOM      2  C   UNL     1     -22.258  -4.651 -28.601  1.00  0.00     0.076 A 
ATOM      3  C   UNL     1     -22.112  -4.972 -27.266  1.00  0.00     0.078 A 
ATOM      4  N   UNL     1     -23.010  -4.573 -26.349  1.00  0.00    -0.213 NA
ATOM      5  C   UNL     1     -24.045  -3.839 -26.761  1.00  0.00     0.229 A 
ATOM      6  N   UNL     1     -24.247  -3.508 -28.044  1.00  0.00    -0.195 NA
ENDROOT
BRANCH   1   7
ATOM      7  N   UNL     1     -23.572  -3.525 -30.287  1.00  0.00    -0.352 N 
ATOM      8  C   UNL     1     -24.391  -2.358 -30.637  1.00  0.00     0.146 C 
ATOM      9  C   UNL     1     -23.776  -1.598 -31.825  1.00  0.00     0.181 C 
ATOM     10  C   UNL     1     -22.588  -3.945 -31.294  1.00  0.00     0.146 C 
ATOM     11  O   UNL     1     -23.607  -2.407 -32.993  1.00  0.00    -0.378 OA
ATOM     12  C   UNL     1     -23.184  -3.751 -32.698  1.00  0.00     0.181 C 
ENDBRANCH   1   7
BRANCH   3  13
ATOM     13  C   UNL     1     -20.984  -5.766 -26.737  1.00  0.00     0.001 A 
ATOM     14  C   UNL     1     -19.737  -5.199 -26.428  1.00  0.00     0.024 A 
ATOM     15  C   UNL     1     -21.125  -7.143 -26.499  1.00  0.00     0.012 A 
ATOM     16  C   UNL     1     -18.668  -5.977 -25.904  1.00  0.00     0.043 A 
ATOM     17  C   UNL     1     -20.073  -7.907 -25.975  1.00  0.00     0.030 A 
ATOM     18  C   UNL     1     -18.845  -7.342 -25.667  1.00  0.00     0.078 A 
ATOM     19  C   UNL     1     -17.398  -5.487 -25.577  1.00  0.00     0.136 A 
ATOM     20  N   UNL     1     -17.882  -8.117 -25.154  1.00  0.00    -0.213 NA
ATOM     21  N   UNL     1     -16.430  -6.246 -25.047  1.00  0.00    -0.196 NA
ATOM     22  C   UNL     1     -16.726  -7.530 -24.839  1.00  0.00     0.222 A 
BRANCH  19  23
ATOM     23  N   UNL     1     -17.048  -4.144 -25.782  1.00  0.00    -0.383 N 
ATOM     24  H   UNL     1     -16.434  -4.041 -26.584  1.00  0.00     0.158 HD
ATOM     25  H   UNL     1     -16.594  -3.823 -24.928  1.00  0.00     0.158 HD
ENDBRANCH  19  23
BRANCH  22  26
ATOM     26  N   UNL     1     -15.738  -8.332 -24.304  1.00  0.00    -0.368 N 
ATOM     27  H   UNL     1     -14.863  -7.822 -24.266  1.00  0.00     0.159 HD
ATOM     28  H   UNL     1     -16.065  -8.762 -23.449  1.00  0.00     0.159 HD
ENDBRANCH  22  26
ENDBRANCH   3  13
BRANCH   5  29
ATOM     29  N   UNL     1     -25.008  -3.385 -25.867  1.00  0.00    -0.322 N 
ATOM     30  H   UNL     1     -25.104  -2.380 -25.937  1.00  0.00     0.170 HD
BRANCH  29  31
ATOM     31  C   UNL     1     -25.851  -4.021 -24.945  1.00  0.00     0.078 A 
ATOM     32  C   UNL     1     -26.896  -4.881 -25.318  1.00  0.00     0.041 A 
ATOM     33  C   UNL     1     -25.657  -3.764 -23.573  1.00  0.00     0.150 A 
ATOM     34  C   UNL     1     -27.712  -5.463 -24.328  1.00  0.00     0.022 A 
ATOM     35  C   UNL     1     -26.452  -4.314 -22.566  1.00  0.00     0.089 A 
ATOM     36  C   UNL     1     -27.462  -5.163 -22.996  1.00  0.00     0.136 A 
ATOM     37  C   UNL     1     -28.817  -6.356 -24.321  1.00  0.00     0.051 A 
ATOM     38  O   UNL     1     -28.345  -5.818 -22.188  1.00  0.00    -0.464 OA
ATOM     39  C   UNL     1     -29.166  -6.533 -23.001  1.00  0.00     0.196 A 
ATOM     40  F   UNL     1     -24.657  -2.946 -23.207  1.00  0.00    -0.205 F 
ENDBRANCH  29  31
ENDBRANCH   5  29
TORSDOF 6
ENDMDL
MODEL 14
REMARK VINA RESULT:    -8.698      2.159      6.251
REMARK INTER + INTRA:         -12.309
REMARK INTER:                 -11.359
REMARK INTRA:                  -0.951
REMARK UNBOUND:                -1.068
REMARK SMILES Nc1nc(N)c2cc(-c3cc(N4CCOCC4)nc(Nc4cc5ccoc5cc4F)n3)ccc2n1
REMARK SMILES IDX 11 1 10 2 9 3 31 4 19 5 18 6 12 7 17 8 16 9 13 10 15 11
REMARK SMILES IDX 14 12 8 13 7 14 32 15 6 16 33 17 34 18 4 19 35 20 3 21 2 22
REMARK SMILES IDX 5 23 1 26 20 29 21 31 22 32 29 33 23 34 28 35 27 36 24 37
REMARK SMILES IDX 26 38 25 39 30 40
REMARK H PARENT 5 24 5 25 1 27 1 28 20 30
ROOT
ATOM      1  C   UNL     1     -20.373  -5.049 -27.734  1.00  0.00     0.134 A 
ATOM      2  C   UNL     1     -20.074  -5.379 -29.041  1.00  0.00     0.076 A 
ATOM      3  C   UNL     1     -21.067  -5.233 -29.989  1.00  0.00     0.078 A 
ATOM      4  N   UNL     1     -22.292  -4.792 -29.657  1.00  0.00    -0.213 NA
ATOM      5  C   UNL     1     -22.532  -4.512 -28.375  1.00  0.00     0.229 A 
ATOM      6  N   UNL     1     -21.605  -4.621 -27.413  1.00  0.00    -0.195 NA
ENDROOT
BRANCH   1   7
ATOM      7  N   UNL     1     -19.443  -5.190 -26.717  1.00  0.00    -0.352 N 
ATOM      8  C   UNL     1     -19.123  -6.496 -26.127  1.00  0.00     0.146 C 
ATOM      9  C   UNL     1     -17.618  -6.600 -25.819  1.00  0.00     0.181 C 
ATOM     10  C   UNL     1     -18.414  -4.151 -26.574  1.00  0.00     0.146 C 
ATOM     11  O   UNL     1     -17.143  -5.573 -24.945  1.00  0.00    -0.378 OA
ATOM     12  C   UNL     1     -17.741  -4.288 -25.198  1.00  0.00     0.181 C 
ENDBRANCH   1   7
BRANCH   3  13
ATOM     13  C   UNL     1     -20.877  -5.540 -31.422  1.00  0.00     0.001 A 
ATOM     14  C   UNL     1     -20.416  -6.786 -31.877  1.00  0.00     0.024 A 
ATOM     15  C   UNL     1     -21.176  -4.583 -32.407  1.00  0.00     0.012 A 
ATOM     16  C   UNL     1     -20.255  -7.068 -33.261  1.00  0.00     0.043 A 
ATOM     17  C   UNL     1     -21.025  -4.865 -33.771  1.00  0.00     0.030 A 
ATOM     18  C   UNL     1     -20.574  -6.098 -34.215  1.00  0.00     0.078 A 
ATOM     19  C   UNL     1     -19.797  -8.280 -33.791  1.00  0.00     0.136 A 
ATOM     20  N   UNL     1     -20.465  -6.317 -35.531  1.00  0.00    -0.213 NA
ATOM     21  N   UNL     1     -19.698  -8.520 -35.104  1.00  0.00    -0.196 NA
ATOM     22  C   UNL     1     -20.059  -7.527 -35.920  1.00  0.00     0.222 A 
BRANCH  19  23
ATOM     23  N   UNL     1     -19.407  -9.346 -32.966  1.00  0.00    -0.383 N 
ATOM     24  H   UNL     1     -19.377 -10.220 -33.482  1.00  0.00     0.158 HD
ATOM     25  H   UNL     1     -20.084  -9.393 -32.205  1.00  0.00     0.158 HD
ENDBRANCH  19  23
BRANCH  22  26
ATOM     26  N   UNL     1     -19.954  -7.750 -37.278  1.00  0.00    -0.368 N 
ATOM     27  H   UNL     1     -20.820  -7.496 -37.737  1.00  0.00     0.159 HD
ATOM     28  H   UNL     1     -19.100  -7.340 -37.632  1.00  0.00     0.159 HD
ENDBRANCH  22  26
ENDBRANCH   3  13
BRANCH   5  29
ATOM     29  N   UNL     1     -23.778  -4.058 -27.958  1.00  0.00    -0.322 N 
ATOM     30  H   UNL     1     -24.164  -3.419 -28.640  1.00  0.00     0.170 HD
BRANCH  29  31
ATOM     31  C   UNL     1     -24.579  -4.319 -26.837  1.00  0.00     0.078 A 
ATOM     32  C   UNL     1     -24.424  -3.662 -25.606  1.00  0.00     0.041 A 
ATOM     33  C   UNL     1     -25.575  -5.311 -26.943  1.00  0.00     0.150 A 
ATOM     34  C   UNL     1     -25.259  -3.999 -24.522  1.00  0.00     0.022 A 
ATOM     35  C   UNL     1     -26.412  -5.678 -25.888  1.00  0.00     0.089 A 
ATOM     36  C   UNL     1     -26.218  -4.987 -24.701  1.00  0.00     0.136 A 
ATOM     37  C   UNL     1     -25.401  -3.562 -23.178  1.00  0.00     0.051 A 
ATOM     38  O   UNL     1     -26.928  -5.171 -23.550  1.00  0.00    -0.464 OA
ATOM     39  C   UNL     1     -26.422  -4.308 -22.632  1.00  0.00     0.196 A 
ATOM     40  F   UNL     1     -25.732  -5.942 -28.118  1.00  0.00    -0.205 F 
ENDBRANCH  29  31
ENDBRANCH   5  29
TORSDOF 6
ENDMDL
MODEL 15
REMARK VINA RESULT:    -8.683      3.135      8.052
REMARK INTER + INTRA:         -12.289
REMARK INTER:                 -11.396
REMARK INTRA:                  -0.893
REMARK UNBOUND:                -1.068
REMARK SMILES Nc1nc(N)c2cc(-c3cc(N4CCOCC4)nc(Nc4cc5ccoc5cc4F)n3)ccc2n1
REMARK SMILES IDX 11 1 10 2 9 3 31 4 19 5 18 6 12 7 17 8 16 9 13 10 15 11
REMARK SMILES IDX 14 12 8 13 7 14 32 15 6 16 33 17 34 18 4 19 35 20 3 21 2 22
REMARK SMILES IDX 5 23 1 26 20 29 21 31 22 32 29 33 23 34 28 35 27 36 24 37
REMARK SMILES IDX 26 38 25 39 30 40
REMARK H PARENT 5 24 5 25 1 27 1 28 20 30
ROOT
ATOM      1  C   UNL     1     -20.930  -4.976 -27.229  1.00  0.00     0.134 A 
ATOM      2  C   UNL     1     -22.210  -5.012 -26.713  1.00  0.00     0.076 A 
ATOM      3  C   UNL     1     -23.264  -4.802 -27.580  1.00  0.00     0.078 A 
ATOM      4  N   UNL     1     -23.058  -4.562 -28.886  1.00  0.00    -0.213 NA
ATOM      5  C   UNL     1     -21.800  -4.513 -29.325  1.00  0.00     0.229 A 
ATOM      6  N   UNL     1     -20.737  -4.722 -28.534  1.00  0.00    -0.195 NA
ENDROOT
BRANCH   1   7
ATOM      7  N   UNL     1     -19.815  -5.151 -26.425  1.00  0.00    -0.352 N 
ATOM      8  C   UNL     1     -19.501  -6.440 -25.796  1.00  0.00     0.146 C 
ATOM      9  C   UNL     1     -17.983  -6.695 -25.807  1.00  0.00     0.181 C 
ATOM     10  C   UNL     1     -18.685  -4.230 -26.604  1.00  0.00     0.146 C 
ATOM     11  O   UNL     1     -17.228  -5.669 -25.155  1.00  0.00    -0.378 OA
ATOM     12  C   UNL     1     -17.740  -4.345 -25.396  1.00  0.00     0.181 C 
ENDBRANCH   1   7
BRANCH   3  13
ATOM     13  C   UNL     1     -24.681  -4.825 -27.160  1.00  0.00     0.001 A 
ATOM     14  C   UNL     1     -25.604  -5.760 -27.654  1.00  0.00     0.024 A 
ATOM     15  C   UNL     1     -25.164  -3.904 -26.215  1.00  0.00     0.012 A 
ATOM     16  C   UNL     1     -26.960  -5.776 -27.225  1.00  0.00     0.043 A 
ATOM     17  C   UNL     1     -26.498  -3.926 -25.787  1.00  0.00     0.030 A 
ATOM     18  C   UNL     1     -27.405  -4.854 -26.274  1.00  0.00     0.078 A 
ATOM     19  C   UNL     1     -27.939  -6.671 -27.674  1.00  0.00     0.136 A 
ATOM     20  N   UNL     1     -28.662  -4.839 -25.817  1.00  0.00    -0.213 NA
ATOM     21  N   UNL     1     -29.196  -6.679 -27.214  1.00  0.00    -0.196 NA
ATOM     22  C   UNL     1     -29.496  -5.769 -26.285  1.00  0.00     0.222 A 
BRANCH  19  23
ATOM     23  N   UNL     1     -27.661  -7.640 -28.650  1.00  0.00    -0.383 N 
ATOM     24  H   UNL     1     -28.512  -7.960 -29.104  1.00  0.00     0.158 HD
ATOM     25  H   UNL     1     -27.188  -8.409 -28.177  1.00  0.00     0.158 HD
ENDBRANCH  19  23
BRANCH  22  26
ATOM     26  N   UNL     1     -30.791  -5.753 -25.806  1.00  0.00    -0.368 N 
ATOM     27  H   UNL     1     -31.321  -6.510 -26.221  1.00  0.00     0.159 HD
ATOM     28  H   UNL     1     -30.787  -5.684 -24.798  1.00  0.00     0.159 HD
ENDBRANCH  22  26
ENDBRANCH   3  13
BRANCH   5  29
ATOM     29  N   UNL     1     -21.512  -4.261 -30.661  1.00  0.00    -0.322 N 
ATOM     30  H   UNL     1     -21.572  -3.269 -30.851  1.00  0.00     0.170 HD
BRANCH  29  31
ATOM     31  C   UNL     1     -21.148  -5.073 -31.744  1.00  0.00     0.078 A 
ATOM     32  C   UNL     1     -20.462  -6.290 -31.602  1.00  0.00     0.041 A 
ATOM     33  C   UNL     1     -21.463  -4.634 -33.046  1.00  0.00     0.150 A 
ATOM     34  C   UNL     1     -20.114  -7.037 -32.745  1.00  0.00     0.022 A 
ATOM     35  C   UNL     1     -21.125  -5.341 -34.201  1.00  0.00     0.089 A 
ATOM     36  C   UNL     1     -20.457  -6.540 -33.996  1.00  0.00     0.136 A 
ATOM     37  C   UNL     1     -19.452  -8.270 -32.988  1.00  0.00     0.051 A 
ATOM     38  O   UNL     1     -20.045  -7.396 -34.975  1.00  0.00    -0.464 OA
ATOM     39  C   UNL     1     -19.432  -8.438 -34.355  1.00  0.00     0.196 A 
ATOM     40  F   UNL     1     -22.122  -3.473 -33.190  1.00  0.00    -0.205 F 
ENDBRANCH  29  31
ENDBRANCH   5  29
TORSDOF 6
ENDMDL
MODEL 16
REMARK VINA RESULT:    -8.677      3.456      8.240
REMARK INTER + INTRA:         -12.281
REMARK INTER:                 -11.299
REMARK INTRA:                  -0.982
REMARK UNBOUND:                -1.068
REMARK SMILES Nc1nc(N)c2cc(-c3cc(N4CCOCC4)nc(Nc4cc5ccoc5cc4F)n3)ccc2n1
REMARK SMILES IDX 11 1 10 2 9 3 31 4 19 5 18 6 12 7 17 8 16 9 13 10 15 11
REMARK SMILES IDX 14 12 8 13 7 14 32 15 6 16 33 17 34 18 4 19 35 20 3 21 2 22
REMARK SMILES IDX 5 23 1 26 20 29 21 31 22 32 29 33 23 34 28 35 27 36 24 37
REMARK SMILES IDX 26 38 25 39 30 40
REMARK H PARENT 5 24 5 25 1 27 1 28 20 30
ROOT
ATOM      1  C   UNL     1     -20.078  -5.997 -27.621  1.00  0.00     0.134 A 
ATOM      2  C   UNL     1     -21.406  -5.784 -27.305  1.00  0.00     0.076 A 
ATOM      3  C   UNL     1     -22.365  -6.321 -28.140  1.00  0.00     0.078 A 
ATOM      4  N   UNL     1     -22.026  -7.023 -29.235  1.00  0.00    -0.213 NA
ATOM      5  C   UNL     1     -20.729  -7.176 -29.506  1.00  0.00     0.229 A 
ATOM      6  N   UNL     1     -19.753  -6.690 -28.726  1.00  0.00    -0.195 NA
ENDROOT
BRANCH   1   7
ATOM      7  N   UNL     1     -19.053  -5.473 -26.851  1.00  0.00    -0.352 N 
ATOM      8  C   UNL     1     -18.940  -4.036 -26.575  1.00  0.00     0.146 C 
ATOM      9  C   UNL     1     -18.464  -3.794 -25.132  1.00  0.00     0.181 C 
ATOM     10  C   UNL     1     -18.384  -6.366 -25.895  1.00  0.00     0.146 C 
ATOM     11  O   UNL     1     -17.212  -4.419 -24.833  1.00  0.00    -0.378 OA
ATOM     12  C   UNL     1     -17.067  -5.719 -25.433  1.00  0.00     0.181 C 
ENDBRANCH   1   7
BRANCH   3  13
ATOM     13  C   UNL     1     -23.818  -6.176 -27.911  1.00  0.00     0.001 A 
ATOM     14  C   UNL     1     -24.362  -5.162 -27.107  1.00  0.00     0.024 A 
ATOM     15  C   UNL     1     -24.731  -7.054 -28.519  1.00  0.00     0.012 A 
ATOM     16  C   UNL     1     -25.764  -5.029 -26.912  1.00  0.00     0.043 A 
ATOM     17  C   UNL     1     -26.113  -6.917 -28.333  1.00  0.00     0.030 A 
ATOM     18  C   UNL     1     -26.646  -5.911 -27.542  1.00  0.00     0.078 A 
ATOM     19  C   UNL     1     -26.381  -4.051 -26.123  1.00  0.00     0.136 A 
ATOM     20  N   UNL     1     -27.974  -5.819 -27.413  1.00  0.00    -0.213 NA
ATOM     21  N   UNL     1     -27.709  -3.935 -25.998  1.00  0.00    -0.196 NA
ATOM     22  C   UNL     1     -28.450  -4.817 -26.670  1.00  0.00     0.222 A 
BRANCH  19  23
ATOM     23  N   UNL     1     -25.636  -3.106 -25.401  1.00  0.00    -0.383 N 
ATOM     24  H   UNL     1     -26.081  -2.193 -25.419  1.00  0.00     0.158 HD
ATOM     25  H   UNL     1     -24.711  -3.071 -25.828  1.00  0.00     0.158 HD
ENDBRANCH  19  23
BRANCH  22  26
ATOM     26  N   UNL     1     -29.822  -4.722 -26.545  1.00  0.00    -0.368 N 
ATOM     27  H   UNL     1     -30.056  -4.205 -25.706  1.00  0.00     0.159 HD
ATOM     28  H   UNL     1     -30.228  -4.409 -27.416  1.00  0.00     0.159 HD
ENDBRANCH  22  26
ENDBRANCH   3  13
BRANCH   5  29
ATOM     29  N   UNL     1     -20.305  -7.882 -30.625  1.00  0.00    -0.322 N 
ATOM     30  H   UNL     1     -20.116  -8.846 -30.380  1.00  0.00     0.170 HD
BRANCH  29  31
ATOM     31  C   UNL     1     -20.118  -7.544 -31.972  1.00  0.00     0.078 A 
ATOM     32  C   UNL     1     -20.481  -6.300 -32.514  1.00  0.00     0.041 A 
ATOM     33  C   UNL     1     -19.560  -8.509 -32.834  1.00  0.00     0.150 A 
ATOM     34  C   UNL     1     -20.278  -6.047 -33.885  1.00  0.00     0.022 A 
ATOM     35  C   UNL     1     -19.355  -8.298 -34.198  1.00  0.00     0.089 A 
ATOM     36  C   UNL     1     -19.724  -7.048 -34.673  1.00  0.00     0.136 A 
ATOM     37  C   UNL     1     -20.503  -4.949 -34.758  1.00  0.00     0.051 A 
ATOM     38  O   UNL     1     -19.601  -6.621 -35.963  1.00  0.00    -0.464 OA
ATOM     39  C   UNL     1     -20.081  -5.350 -36.006  1.00  0.00     0.196 A 
ATOM     40  F   UNL     1     -19.206  -9.700 -32.323  1.00  0.00    -0.205 F 
ENDBRANCH  29  31
ENDBRANCH   5  29
TORSDOF 6
ENDMDL
MODEL 17
REMARK VINA RESULT:    -8.655      2.551      7.212
REMARK INTER + INTRA:         -12.254
REMARK INTER:                 -11.247
REMARK INTRA:                  -1.006
REMARK UNBOUND:                -1.068
REMARK SMILES Nc1nc(N)c2cc(-c3cc(N4CCOCC4)nc(Nc4cc5ccoc5cc4F)n3)ccc2n1
REMARK SMILES IDX 11 1 10 2 9 3 31 4 19 5 18 6 12 7 17 8 16 9 13 10 15 11
REMARK SMILES IDX 14 12 8 13 7 14 32 15 6 16 33 17 34 18 4 19 35 20 3 21 2 22
REMARK SMILES IDX 5 23 1 26 20 29 21 31 22 32 29 33 23 34 28 35 27 36 24 37
REMARK SMILES IDX 26 38 25 39 30 40
REMARK H PARENT 5 24 5 25 1 27 1 28 20 30
ROOT
ATOM      1  C   UNL     1     -22.559  -4.514 -28.954  1.00  0.00     0.134 A 
ATOM      2  C   UNL     1     -23.829  -4.809 -28.500  1.00  0.00     0.076 A 
ATOM      3  C   UNL     1     -24.002  -5.018 -27.146  1.00  0.00     0.078 A 
ATOM      4  N   UNL     1     -22.968  -4.946 -26.290  1.00  0.00    -0.213 NA
ATOM      5  C   UNL     1     -21.758  -4.683 -26.787  1.00  0.00     0.229 A 
ATOM      6  N   UNL     1     -21.532  -4.458 -28.089  1.00  0.00    -0.195 NA
ENDROOT
BRANCH   1   7
ATOM      7  N   UNL     1     -22.294  -4.315 -30.299  1.00  0.00    -0.352 N 
ATOM      8  C   UNL     1     -20.997  -4.652 -30.898  1.00  0.00     0.146 C 
ATOM      9  C   UNL     1     -21.185  -5.245 -32.305  1.00  0.00     0.181 C 
ATOM     10  C   UNL     1     -23.435  -4.259 -31.225  1.00  0.00     0.146 C 
ATOM     11  O   UNL     1     -21.891  -4.380 -33.198  1.00  0.00    -0.378 OA
ATOM     12  C   UNL     1     -22.970  -3.667 -32.566  1.00  0.00     0.181 C 
ENDBRANCH   1   7
BRANCH   3  13
ATOM     13  C   UNL     1     -25.308  -5.330 -26.529  1.00  0.00     0.001 A 
ATOM     14  C   UNL     1     -25.505  -5.351 -25.139  1.00  0.00     0.024 A 
ATOM     15  C   UNL     1     -26.431  -5.602 -27.328  1.00  0.00     0.012 A 
ATOM     16  C   UNL     1     -26.775  -5.637 -24.565  1.00  0.00     0.043 A 
ATOM     17  C   UNL     1     -27.684  -5.876 -26.761  1.00  0.00     0.030 A 
ATOM     18  C   UNL     1     -27.875  -5.891 -25.388  1.00  0.00     0.078 A 
ATOM     19  C   UNL     1     -27.049  -5.682 -23.193  1.00  0.00     0.136 A 
ATOM     20  N   UNL     1     -29.096  -6.143 -24.903  1.00  0.00    -0.213 NA
ATOM     21  N   UNL     1     -28.269  -5.916 -22.693  1.00  0.00    -0.196 NA
ATOM     22  C   UNL     1     -29.247  -6.116 -23.578  1.00  0.00     0.222 A 
BRANCH  19  23
ATOM     23  N   UNL     1     -26.046  -5.478 -22.232  1.00  0.00    -0.383 N 
ATOM     24  H   UNL     1     -25.861  -6.328 -21.707  1.00  0.00     0.158 HD
ATOM     25  H   UNL     1     -26.372  -4.731 -21.620  1.00  0.00     0.158 HD
ENDBRANCH  19  23
BRANCH  22  26
ATOM     26  N   UNL     1     -30.511  -6.369 -23.082  1.00  0.00    -0.368 N 
ATOM     27  H   UNL     1     -30.621  -7.362 -22.912  1.00  0.00     0.159 HD
ATOM     28  H   UNL     1     -30.717  -5.739 -22.320  1.00  0.00     0.159 HD
ENDBRANCH  22  26
ENDBRANCH   3  13
BRANCH   5  29
ATOM     29  N   UNL     1     -20.643  -4.602 -25.963  1.00  0.00    -0.322 N 
ATOM     30  H   UNL     1     -20.679  -3.757 -25.407  1.00  0.00     0.170 HD
BRANCH  29  31
ATOM     31  C   UNL     1     -19.537  -5.436 -25.742  1.00  0.00     0.078 A 
ATOM     32  C   UNL     1     -19.618  -6.837 -25.723  1.00  0.00     0.041 A 
ATOM     33  C   UNL     1     -18.284  -4.837 -25.502  1.00  0.00     0.150 A 
ATOM     34  C   UNL     1     -18.462  -7.602 -25.473  1.00  0.00     0.022 A 
ATOM     35  C   UNL     1     -17.121  -5.561 -25.241  1.00  0.00     0.089 A 
ATOM     36  C   UNL     1     -17.261  -6.942 -25.245  1.00  0.00     0.136 A 
ATOM     37  C   UNL     1     -18.162  -8.988 -25.387  1.00  0.00     0.051 A 
ATOM     38  O   UNL     1     -16.260  -7.842 -25.027  1.00  0.00    -0.464 OA
ATOM     39  C   UNL     1     -16.816  -9.079 -25.110  1.00  0.00     0.196 A 
ATOM     40  F   UNL     1     -18.198  -3.497 -25.523  1.00  0.00    -0.205 F 
ENDBRANCH  29  31
ENDBRANCH   5  29
TORSDOF 6
ENDMDL
MODEL 18
REMARK VINA RESULT:    -8.643      1.730      6.254
REMARK INTER + INTRA:         -12.237
REMARK INTER:                 -11.255
REMARK INTRA:                  -0.982
REMARK UNBOUND:                -1.068
REMARK SMILES Nc1nc(N)c2cc(-c3cc(N4CCOCC4)nc(Nc4cc5ccoc5cc4F)n3)ccc2n1
REMARK SMILES IDX 11 1 10 2 9 3 31 4 19 5 18 6 12 7 17 8 16 9 13 10 15 11
REMARK SMILES IDX 14 12 8 13 7 14 32 15 6 16 33 17 34 18 4 19 35 20 3 21 2 22
REMARK SMILES IDX 5 23 1 26 20 29 21 31 22 32 29 33 23 34 28 35 27 36 24 37
REMARK SMILES IDX 26 38 25 39 30 40
REMARK H PARENT 5 24 5 25 1 27 1 28 20 30
ROOT
ATOM      1  C   UNL     1     -20.664  -4.810 -27.521  1.00  0.00     0.134 A 
ATOM      2  C   UNL     1     -20.361  -5.139 -28.828  1.00  0.00     0.076 A 
ATOM      3  C   UNL     1     -21.333  -4.939 -29.789  1.00  0.00     0.078 A 
ATOM      4  N   UNL     1     -22.542  -4.448 -29.468  1.00  0.00    -0.213 NA
ATOM      5  C   UNL     1     -22.788  -4.171 -28.187  1.00  0.00     0.229 A 
ATOM      6  N   UNL     1     -21.881  -4.332 -27.213  1.00  0.00    -0.195 NA
ENDROOT
BRANCH   1   7
ATOM      7  N   UNL     1     -19.756  -5.003 -26.493  1.00  0.00    -0.352 N 
ATOM      8  C   UNL     1     -19.672  -6.268 -25.753  1.00  0.00     0.146 C 
ATOM      9  C   UNL     1     -18.207  -6.614 -25.432  1.00  0.00     0.181 C 
ATOM     10  C   UNL     1     -18.550  -4.164 -26.472  1.00  0.00     0.146 C 
ATOM     11  O   UNL     1     -17.532  -5.598 -24.684  1.00  0.00    -0.378 OA
ATOM     12  C   UNL     1     -17.886  -4.263 -25.089  1.00  0.00     0.181 C 
ENDBRANCH   1   7
BRANCH   3  13
ATOM     13  C   UNL     1     -21.135  -5.239 -31.222  1.00  0.00     0.001 A 
ATOM     14  C   UNL     1     -20.379  -6.333 -31.671  1.00  0.00     0.024 A 
ATOM     15  C   UNL     1     -21.726  -4.435 -32.211  1.00  0.00     0.012 A 
ATOM     16  C   UNL     1     -20.214  -6.614 -33.056  1.00  0.00     0.043 A 
ATOM     17  C   UNL     1     -21.570  -4.719 -33.575  1.00  0.00     0.030 A 
ATOM     18  C   UNL     1     -20.827  -5.803 -34.014  1.00  0.00     0.078 A 
ATOM     19  C   UNL     1     -19.473  -7.680 -33.580  1.00  0.00     0.136 A 
ATOM     20  N   UNL     1     -20.725  -6.034 -35.327  1.00  0.00    -0.213 NA
ATOM     21  N   UNL     1     -19.376  -7.935 -34.891  1.00  0.00    -0.196 NA
ATOM     22  C   UNL     1     -20.028  -7.107 -35.709  1.00  0.00     0.222 A 
BRANCH  19  23
ATOM     23  N   UNL     1     -18.773  -8.572 -32.753  1.00  0.00    -0.383 N 
ATOM     24  H   UNL     1     -17.886  -8.177 -32.453  1.00  0.00     0.158 HD
ATOM     25  H   UNL     1     -18.632  -9.425 -33.291  1.00  0.00     0.158 HD
ENDBRANCH  19  23
BRANCH  22  26
ATOM     26  N   UNL     1     -19.932  -7.345 -37.065  1.00  0.00    -0.368 N 
ATOM     27  H   UNL     1     -19.550  -8.269 -37.226  1.00  0.00     0.159 HD
ATOM     28  H   UNL     1     -20.804  -7.114 -37.521  1.00  0.00     0.159 HD
ENDBRANCH  22  26
ENDBRANCH   3  13
BRANCH   5  29
ATOM     29  N   UNL     1     -24.019  -3.668 -27.782  1.00  0.00    -0.322 N 
ATOM     30  H   UNL     1     -24.210  -2.791 -28.251  1.00  0.00     0.170 HD
BRANCH  29  31
ATOM     31  C   UNL     1     -25.014  -4.127 -26.908  1.00  0.00     0.078 A 
ATOM     32  C   UNL     1     -26.085  -4.939 -27.315  1.00  0.00     0.041 A 
ATOM     33  C   UNL     1     -24.952  -3.734 -25.556  1.00  0.00     0.150 A 
ATOM     34  C   UNL     1     -27.056  -5.341 -26.376  1.00  0.00     0.022 A 
ATOM     35  C   UNL     1     -25.900  -4.103 -24.602  1.00  0.00     0.089 A 
ATOM     36  C   UNL     1     -26.929  -4.913 -25.061  1.00  0.00     0.136 A 
ATOM     37  C   UNL     1     -28.232  -6.137 -26.411  1.00  0.00     0.051 A 
ATOM     38  O   UNL     1     -27.953  -5.401 -24.303  1.00  0.00    -0.464 OA
ATOM     39  C   UNL     1     -28.740  -6.137 -25.131  1.00  0.00     0.196 A 
ATOM     40  F   UNL     1     -23.928  -2.961 -25.158  1.00  0.00    -0.205 F 
ENDBRANCH  29  31
ENDBRANCH   5  29
TORSDOF 6
ENDMDL
MODEL 19
REMARK VINA RESULT:    -8.468      3.273      8.195
REMARK INTER + INTRA:         -12.011
REMARK INTER:                 -11.020
REMARK INTRA:                  -0.992
REMARK UNBOUND:                -1.068
REMARK SMILES Nc1nc(N)c2cc(-c3cc(N4CCOCC4)nc(Nc4cc5ccoc5cc4F)n3)ccc2n1
REMARK SMILES IDX 11 1 10 2 9 3 31 4 19 5 18 6 12 7 17 8 16 9 13 10 15 11
REMARK SMILES IDX 14 12 8 13 7 14 32 15 6 16 33 17 34 18 4 19 35 20 3 21 2 22
REMARK SMILES IDX 5 23 1 26 20 29 21 31 22 32 29 33 23 34 28 35 27 36 24 37
REMARK SMILES IDX 26 38 25 39 30 40
REMARK H PARENT 5 24 5 25 1 27 1 28 20 30
ROOT
ATOM      1  C   UNL     1     -21.622  -4.537 -29.058  1.00  0.00     0.134 A 
ATOM      2  C   UNL     1     -20.571  -5.238 -28.500  1.00  0.00     0.076 A 
ATOM      3  C   UNL     1     -20.532  -5.362 -27.126  1.00  0.00     0.078 A 
ATOM      4  N   UNL     1     -21.480  -4.814 -26.347  1.00  0.00    -0.213 NA
ATOM      5  C   UNL     1     -22.458  -4.127 -26.937  1.00  0.00     0.229 A 
ATOM      6  N   UNL     1     -22.556  -3.983 -28.267  1.00  0.00    -0.195 NA
ENDROOT
BRANCH   1   7
ATOM      7  N   UNL     1     -21.724  -4.343 -30.426  1.00  0.00    -0.352 N 
ATOM      8  C   UNL     1     -20.631  -4.683 -31.346  1.00  0.00     0.146 C 
ATOM      9  C   UNL     1     -21.185  -5.280 -32.652  1.00  0.00     0.181 C 
ATOM     10  C   UNL     1     -23.068  -4.289 -31.017  1.00  0.00     0.146 C 
ATOM     11  O   UNL     1     -22.104  -4.417 -33.328  1.00  0.00    -0.378 OA
ATOM     12  C   UNL     1     -22.976  -3.702 -32.435  1.00  0.00     0.181 C 
ENDBRANCH   1   7
BRANCH   3  13
ATOM     13  C   UNL     1     -19.470  -6.094 -26.404  1.00  0.00     0.001 A 
ATOM     14  C   UNL     1     -19.607  -7.434 -26.007  1.00  0.00     0.024 A 
ATOM     15  C   UNL     1     -18.248  -5.470 -26.100  1.00  0.00     0.012 A 
ATOM     16  C   UNL     1     -18.567  -8.126 -25.327  1.00  0.00     0.043 A 
ATOM     17  C   UNL     1     -17.221  -6.156 -25.438  1.00  0.00     0.030 A 
ATOM     18  C   UNL     1     -17.359  -7.480 -25.051  1.00  0.00     0.078 A 
ATOM     19  C   UNL     1     -18.629  -9.456 -24.895  1.00  0.00     0.136 A 
ATOM     20  N   UNL     1     -16.339  -8.089 -24.437  1.00  0.00    -0.213 NA
ATOM     21  N   UNL     1     -17.611 -10.084 -24.294  1.00  0.00    -0.196 NA
ATOM     22  C   UNL     1     -16.498  -9.373 -24.110  1.00  0.00     0.222 A 
BRANCH  19  23
ATOM     23  N   UNL     1     -19.783 -10.235 -25.070  1.00  0.00    -0.383 N 
ATOM     24  H   UNL     1     -20.482  -9.742 -25.619  1.00  0.00     0.158 HD
ATOM     25  H   UNL     1     -20.136 -10.454 -24.139  1.00  0.00     0.158 HD
ENDBRANCH  19  23
BRANCH  22  26
ATOM     26  N   UNL     1     -15.440  -9.999 -23.482  1.00  0.00    -0.368 N 
ATOM     27  H   UNL     1     -14.748 -10.277 -24.167  1.00  0.00     0.159 HD
ATOM     28  H   UNL     1     -15.124  -9.444 -22.698  1.00  0.00     0.159 HD
ENDBRANCH  22  26
ENDBRANCH   3  13
BRANCH   5  29
ATOM     29  N   UNL     1     -23.467  -3.527 -26.195  1.00  0.00    -0.322 N 
ATOM     30  H   UNL     1     -23.239  -2.558 -26.011  1.00  0.00     0.170 HD
BRANCH  29  31
ATOM     31  C   UNL     1     -24.697  -3.973 -25.690  1.00  0.00     0.078 A 
ATOM     32  C   UNL     1     -24.872  -4.433 -24.375  1.00  0.00     0.041 A 
ATOM     33  C   UNL     1     -25.810  -3.985 -26.555  1.00  0.00     0.150 A 
ATOM     34  C   UNL     1     -26.138  -4.884 -23.954  1.00  0.00     0.022 A 
ATOM     35  C   UNL     1     -27.076  -4.435 -26.176  1.00  0.00     0.089 A 
ATOM     36  C   UNL     1     -27.189  -4.868 -24.862  1.00  0.00     0.136 A 
ATOM     37  C   UNL     1     -26.682  -5.394 -22.745  1.00  0.00     0.051 A 
ATOM     38  O   UNL     1     -28.329  -5.334 -24.276  1.00  0.00    -0.464 OA
ATOM     39  C   UNL     1     -28.011  -5.657 -22.995  1.00  0.00     0.196 A 
ATOM     40  F   UNL     1     -25.652  -3.543 -27.813  1.00  0.00    -0.205 F 
ENDBRANCH  29  31
ENDBRANCH   5  29
TORSDOF 6
ENDMDL
MODEL 20
REMARK VINA RESULT:    -8.435      2.665      6.825
REMARK INTER + INTRA:         -11.968
REMARK INTER:                 -11.024
REMARK INTRA:                  -0.944
REMARK UNBOUND:                -1.068
REMARK SMILES Nc1nc(N)c2cc(-c3cc(N4CCOCC4)nc(Nc4cc5ccoc5cc4F)n3)ccc2n1
REMARK SMILES IDX 11 1 10 2 9 3 31 4 19 5 18 6 12 7 17 8 16 9 13 10 15 11
REMARK SMILES IDX 14 12 8 13 7 14 32 15 6 16 33 17 34 18 4 19 35 20 3 21 2 22
REMARK SMILES IDX 5 23 1 26 20 29 21 31 22 32 29 33 23 34 28 35 27 36 24 37
REMARK SMILES IDX 26 38 25 39 30 40
REMARK H PARENT 5 24 5 25 1 27 1 28 20 30
ROOT
ATOM      1  C   UNL     1     -21.158  -5.464 -30.516  1.00  0.00     0.134 A 
ATOM      2  C   UNL     1     -22.496  -5.633 -30.219  1.00  0.00     0.076 A 
ATOM      3  C   UNL     1     -22.885  -5.528 -28.898  1.00  0.00     0.078 A 
ATOM      4  N   UNL     1     -21.993  -5.278 -27.924  1.00  0.00    -0.213 NA
ATOM      5  C   UNL     1     -20.710  -5.149 -28.265  1.00  0.00     0.229 A 
ATOM      6  N   UNL     1     -20.275  -5.228 -29.531  1.00  0.00    -0.195 NA
ENDROOT
BRANCH   1   7
ATOM      7  N   UNL     1     -20.680  -5.579 -31.811  1.00  0.00    -0.352 N 
ATOM      8  C   UNL     1     -20.032  -6.802 -32.299  1.00  0.00     0.146 C 
ATOM      9  C   UNL     1     -20.436  -7.088 -33.756  1.00  0.00     0.181 C 
ATOM     10  C   UNL     1     -21.260  -4.704 -32.840  1.00  0.00     0.146 C 
ATOM     11  O   UNL     1     -20.129  -6.017 -34.653  1.00  0.00    -0.378 OA
ATOM     12  C   UNL     1     -20.356  -4.715 -34.084  1.00  0.00     0.181 C 
ENDBRANCH   1   7
BRANCH   3  13
ATOM     13  C   UNL     1     -24.284  -5.676 -28.447  1.00  0.00     0.001 A 
ATOM     14  C   UNL     1     -24.939  -4.705 -27.672  1.00  0.00     0.024 A 
ATOM     15  C   UNL     1     -25.036  -6.809 -28.800  1.00  0.00     0.012 A 
ATOM     16  C   UNL     1     -26.291  -4.858 -27.261  1.00  0.00     0.043 A 
ATOM     17  C   UNL     1     -26.372  -6.955 -28.402  1.00  0.00     0.030 A 
ATOM     18  C   UNL     1     -27.015  -5.991 -27.641  1.00  0.00     0.078 A 
ATOM     19  C   UNL     1     -27.009  -3.940 -26.486  1.00  0.00     0.136 A 
ATOM     20  N   UNL     1     -28.296  -6.176 -27.303  1.00  0.00    -0.213 NA
ATOM     21  N   UNL     1     -28.296  -4.102 -26.154  1.00  0.00    -0.196 NA
ATOM     22  C   UNL     1     -28.890  -5.210 -26.599  1.00  0.00     0.222 A 
BRANCH  19  23
ATOM     23  N   UNL     1     -26.418  -2.763 -25.999  1.00  0.00    -0.383 N 
ATOM     24  H   UNL     1     -26.606  -2.640 -25.008  1.00  0.00     0.158 HD
ATOM     25  H   UNL     1     -26.802  -1.993 -26.544  1.00  0.00     0.158 HD
ENDBRANCH  19  23
BRANCH  22  26
ATOM     26  N   UNL     1     -30.214  -5.403 -26.258  1.00  0.00    -0.368 N 
ATOM     27  H   UNL     1     -30.693  -4.511 -26.220  1.00  0.00     0.159 HD
ATOM     28  H   UNL     1     -30.619  -6.126 -26.836  1.00  0.00     0.159 HD
ENDBRANCH  22  26
ENDBRANCH   3  13
BRANCH   5  29
ATOM     29  N   UNL     1     -19.733  -4.898 -27.311  1.00  0.00    -0.322 N 
ATOM     30  H   UNL     1     -19.668  -3.905 -27.128  1.00  0.00     0.170 HD
BRANCH  29  31
ATOM     31  C   UNL     1     -18.871  -5.716 -26.566  1.00  0.00     0.078 A 
ATOM     32  C   UNL     1     -19.138  -7.066 -26.286  1.00  0.00     0.041 A 
ATOM     33  C   UNL     1     -17.689  -5.149 -26.049  1.00  0.00     0.150 A 
ATOM     34  C   UNL     1     -18.229  -7.814 -25.512  1.00  0.00     0.022 A 
ATOM     35  C   UNL     1     -16.772  -5.856 -25.270  1.00  0.00     0.089 A 
ATOM     36  C   UNL     1     -17.085  -7.187 -25.035  1.00  0.00     0.136 A 
ATOM     37  C   UNL     1     -18.157  -9.154 -25.046  1.00  0.00     0.051 A 
ATOM     38  O   UNL     1     -16.329  -8.065 -24.315  1.00  0.00    -0.464 OA
ATOM     39  C   UNL     1     -16.990  -9.252 -24.321  1.00  0.00     0.196 A 
ATOM     40  F   UNL     1     -17.425  -3.860 -26.316  1.00  0.00    -0.205 F 
ENDBRANCH  29  31
ENDBRANCH   5  29
TORSDOF 6
ENDMDL
