REMARK SMILES Nc1nc(Nc2cc3c(cc2F)OCCO3)c2cc(-c3cc(F)c4[nH]ncc4c3)ccc2n1
REMARK SMILES IDX 19 1 18 2 17 3 32 4 33 5 2 6 3 7 4 8 31 9 30 10 20 11 22 12
REMARK SMILES IDX 21 13 24 14 28 15 25 16 29 17 27 18 26 19 23 20 5 22 6 24
REMARK SMILES IDX 7 25 11 26 8 27 10 28 9 29 16 30 13 31 15 32 14 33 12 34
REMARK SMILES IDX 1 35
REMARK H PARENT 25 21 5 23 1 36 1 37
ROOT
ATOM      1  C   UNL     1      -2.927  -0.374   1.409  1.00  0.00    -0.017 A 
ATOM      2  C   UNL     1      -1.592  -0.271   0.994  1.00  0.00     0.023 A 
ATOM      3  C   UNL     1      -0.534  -0.886   1.717  1.00  0.00     0.044 A 
ATOM      4  C   UNL     1      -0.821  -1.629   2.864  1.00  0.00     0.078 A 
ATOM      5  N   UNL     1       0.120  -2.245   3.582  1.00  0.00    -0.213 NA
ATOM      6  C   UNL     1       1.378  -2.155   3.152  1.00  0.00     0.222 A 
ATOM      7  N   UNL     1       1.775  -1.449   2.098  1.00  0.00    -0.195 NA
ATOM      8  C   UNL     1       0.827  -0.827   1.374  1.00  0.00     0.144 A 
ATOM      9  C   UNL     1      -2.143  -1.726   3.274  1.00  0.00     0.030 A 
ATOM     10  C   UNL     1      -3.186  -1.111   2.568  1.00  0.00     0.011 A 
ENDROOT
BRANCH   1  11
ATOM     11  C   UNL     1      -4.014   0.264   0.649  1.00  0.00    -0.015 A 
ATOM     12  C   UNL     1      -5.954   1.747   0.578  1.00  0.00     0.149 A 
ATOM     13  C   UNL     1      -4.920   1.132   1.284  1.00  0.00     0.050 A 
ATOM     14  C   UNL     1      -6.074   1.482  -0.779  1.00  0.00     0.101 A 
ATOM     15  C   UNL     1      -5.207   0.632  -1.451  1.00  0.00     0.023 A 
ATOM     16  N   UNL     1      -6.963   1.923  -1.718  1.00  0.00    -0.275 N 
ATOM     17  C   UNL     1      -4.164   0.014  -0.734  1.00  0.00     0.021 A 
ATOM     18  C   UNL     1      -5.675   0.640  -2.783  1.00  0.00     0.143 A 
ATOM     19  N   UNL     1      -6.743   1.426  -2.951  1.00  0.00    -0.183 NA
ATOM     20  F   UNL     1      -6.803   2.573   1.201  1.00  0.00    -0.205 F 
ATOM     21  H   UNL     1      -7.741   2.560  -1.582  1.00  0.00     0.190 HD
ENDBRANCH   1  11
BRANCH   8  22
ATOM     22  N   UNL     1       1.222  -0.037   0.257  1.00  0.00    -0.337 N 
ATOM     23  H   UNL     1       0.941   0.922   0.434  1.00  0.00     0.168 HD
BRANCH  22  24
ATOM     24  C   UNL     1       2.476  -0.114  -0.396  1.00  0.00     0.080 A 
ATOM     25  C   UNL     1       3.121   1.069  -0.790  1.00  0.00     0.079 A 
ATOM     26  C   UNL     1       3.081  -1.338  -0.735  1.00  0.00     0.150 A 
ATOM     27  C   UNL     1       4.346   1.020  -1.459  1.00  0.00     0.163 A 
ATOM     28  C   UNL     1       4.309  -1.391  -1.390  1.00  0.00     0.092 A 
ATOM     29  C   UNL     1       4.953  -0.209  -1.734  1.00  0.00     0.164 A 
ATOM     30  O   UNL     1       4.900   2.225  -1.810  1.00  0.00    -0.486 OA
ATOM     31  O   UNL     1       6.168  -0.325  -2.358  1.00  0.00    -0.486 OA
ATOM     32  C   UNL     1       5.955   2.059  -2.766  1.00  0.00     0.271 C 
ATOM     33  C   UNL     1       6.876   0.921  -2.357  1.00  0.00     0.271 C 
ATOM     34  F   UNL     1       2.461  -2.499  -0.473  1.00  0.00    -0.205 F 
ENDBRANCH  22  24
ENDBRANCH   8  22
BRANCH   6  35
ATOM     35  N   UNL     1       2.350  -2.788   3.896  1.00  0.00    -0.368 N 
ATOM     36  H   UNL     1       2.042  -2.903   4.849  1.00  0.00     0.159 HD
ATOM     37  H   UNL     1       3.245  -2.348   3.736  1.00  0.00     0.159 HD
ENDBRANCH   6  35
TORSDOF 4
