MODEL 1
REMARK VINA RESULT:   -10.387      0.000      0.000
REMARK INTER + INTRA:         -13.477
REMARK INTER:                 -12.512
REMARK INTRA:                  -0.965
REMARK UNBOUND:                -0.965
REMARK SMILES Nc1nc(Nc2cc3c(cc2F)OCCO3)c2cc(-c3cc(F)c4[nH]ncc4c3)ccc2n1
REMARK SMILES IDX 19 1 18 2 17 3 32 4 33 5 2 6 3 7 4 8 31 9 30 10 20 11 22 12
REMARK SMILES IDX 21 13 24 14 28 15 25 16 29 17 27 18 26 19 23 20 5 22 6 24
REMARK SMILES IDX 7 25 11 26 8 27 10 28 9 29 16 30 13 31 15 32 14 33 12 34
REMARK SMILES IDX 1 35
REMARK H PARENT 25 21 5 23 1 36 1 37
ROOT
ATOM      1  C   UNL     1     -20.299  -5.094 -28.204  1.00  0.00    -0.017 A 
ATOM      2  C   UNL     1     -20.114  -5.116 -29.594  1.00  0.00     0.023 A 
ATOM      3  C   UNL     1     -21.120  -4.661 -30.489  1.00  0.00     0.044 A 
ATOM      4  C   UNL     1     -22.321  -4.161 -29.984  1.00  0.00     0.078 A 
ATOM      5  N   UNL     1     -23.301  -3.703 -30.765  1.00  0.00    -0.213 NA
ATOM      6  C   UNL     1     -23.091  -3.710 -32.081  1.00  0.00     0.222 A 
ATOM      7  N   UNL     1     -22.006  -4.192 -32.678  1.00  0.00    -0.195 NA
ATOM      8  C   UNL     1     -21.018  -4.654 -31.890  1.00  0.00     0.144 A 
ATOM      9  C   UNL     1     -22.502  -4.143 -28.608  1.00  0.00     0.030 A 
ATOM     10  C   UNL     1     -21.516  -4.602 -27.724  1.00  0.00     0.011 A 
ENDROOT
BRANCH   1  11
ATOM     11  C   UNL     1     -19.248  -5.564 -27.287  1.00  0.00    -0.015 A 
ATOM     12  C   UNL     1     -17.544  -5.084 -25.604  1.00  0.00     0.149 A 
ATOM     13  C   UNL     1     -18.540  -4.655 -26.480  1.00  0.00     0.050 A 
ATOM     14  C   UNL     1     -17.260  -6.441 -25.543  1.00  0.00     0.101 A 
ATOM     15  C   UNL     1     -17.928  -7.378 -26.319  1.00  0.00     0.023 A 
ATOM     16  N   UNL     1     -16.359  -7.151 -24.800  1.00  0.00    -0.275 N 
ATOM     17  C   UNL     1     -18.934  -6.939 -27.202  1.00  0.00     0.021 A 
ATOM     18  C   UNL     1     -17.343  -8.610 -25.958  1.00  0.00     0.143 A 
ATOM     19  N   UNL     1     -16.388  -8.478 -25.032  1.00  0.00    -0.183 NA
ATOM     20  F   UNL     1     -16.885  -4.203 -24.842  1.00  0.00    -0.205 F 
ATOM     21  H   UNL     1     -15.697  -6.790 -24.121  1.00  0.00     0.190 HD
ENDBRANCH   1  11
BRANCH   8  22
ATOM     22  N   UNL     1     -19.855  -5.207 -32.499  1.00  0.00    -0.337 N 
ATOM     23  H   UNL     1     -19.320  -5.685 -31.781  1.00  0.00     0.168 HD
BRANCH  22  24
ATOM     24  C   UNL     1     -19.829  -5.899 -33.734  1.00  0.00     0.080 A 
ATOM     25  C   UNL     1     -20.134  -7.270 -33.761  1.00  0.00     0.079 A 
ATOM     26  C   UNL     1     -19.440  -5.287 -34.939  1.00  0.00     0.150 A 
ATOM     27  C   UNL     1     -20.090  -7.982 -34.961  1.00  0.00     0.163 A 
ATOM     28  C   UNL     1     -19.408  -5.991 -36.140  1.00  0.00     0.092 A 
ATOM     29  C   UNL     1     -19.754  -7.336 -36.155  1.00  0.00     0.164 A 
ATOM     30  O   UNL     1     -20.398  -9.317 -34.892  1.00  0.00    -0.486 OA
ATOM     31  O   UNL     1     -19.724  -7.970 -37.370  1.00  0.00    -0.486 OA
ATOM     32  C   UNL     1     -20.001 -10.010 -36.083  1.00  0.00     0.271 C 
ATOM     33  C   UNL     1     -20.410  -9.227 -37.320  1.00  0.00     0.271 C 
ATOM     34  F   UNL     1     -19.041  -4.006 -34.953  1.00  0.00    -0.205 F 
ENDBRANCH  22  24
ENDBRANCH   8  22
BRANCH   6  35
ATOM     35  N   UNL     1     -24.105  -3.241 -32.888  1.00  0.00    -0.368 N 
ATOM     36  H   UNL     1     -23.736  -2.615 -33.587  1.00  0.00     0.159 HD
ATOM     37  H   UNL     1     -24.874  -2.916 -32.319  1.00  0.00     0.159 HD
ENDBRANCH   6  35
TORSDOF 4
ENDMDL
MODEL 2
REMARK VINA RESULT:    -9.302      1.470      1.854
REMARK INTER + INTRA:         -12.170
REMARK INTER:                 -11.052
REMARK INTRA:                  -1.118
REMARK UNBOUND:                -0.965
REMARK SMILES Nc1nc(Nc2cc3c(cc2F)OCCO3)c2cc(-c3cc(F)c4[nH]ncc4c3)ccc2n1
REMARK SMILES IDX 19 1 18 2 17 3 32 4 33 5 2 6 3 7 4 8 31 9 30 10 20 11 22 12
REMARK SMILES IDX 21 13 24 14 28 15 25 16 29 17 27 18 26 19 23 20 5 22 6 24
REMARK SMILES IDX 7 25 11 26 8 27 10 28 9 29 16 30 13 31 15 32 14 33 12 34
REMARK SMILES IDX 1 35
REMARK H PARENT 25 21 5 23 1 36 1 37
ROOT
ATOM      1  C   UNL     1     -20.446  -6.342 -28.928  1.00  0.00    -0.017 A 
ATOM      2  C   UNL     1     -20.235  -5.881 -30.235  1.00  0.00     0.023 A 
ATOM      3  C   UNL     1     -21.247  -5.195 -30.959  1.00  0.00     0.044 A 
ATOM      4  C   UNL     1     -22.484  -4.953 -30.357  1.00  0.00     0.078 A 
ATOM      5  N   UNL     1     -23.473  -4.302 -30.972  1.00  0.00    -0.213 NA
ATOM      6  C   UNL     1     -23.239  -3.850 -32.204  1.00  0.00     0.222 A 
ATOM      7  N   UNL     1     -22.117  -4.050 -32.889  1.00  0.00    -0.195 NA
ATOM      8  C   UNL     1     -21.120  -4.707 -32.270  1.00  0.00     0.144 A 
ATOM      9  C   UNL     1     -22.691  -5.413 -29.065  1.00  0.00     0.030 A 
ATOM     10  C   UNL     1     -21.697  -6.099 -28.354  1.00  0.00     0.011 A 
ENDROOT
BRANCH   1  11
ATOM     11  C   UNL     1     -19.388  -7.048 -28.187  1.00  0.00    -0.015 A 
ATOM     12  C   UNL     1     -17.814  -8.907 -28.010  1.00  0.00     0.149 A 
ATOM     13  C   UNL     1     -18.819  -8.228 -28.698  1.00  0.00     0.050 A 
ATOM     14  C   UNL     1     -17.381  -8.392 -26.796  1.00  0.00     0.101 A 
ATOM     15  C   UNL     1     -17.912  -7.232 -26.249  1.00  0.00     0.023 A 
ATOM     16  N   UNL     1     -16.435  -8.821 -25.910  1.00  0.00    -0.275 N 
ATOM     17  C   UNL     1     -18.926  -6.549 -26.948  1.00  0.00     0.021 A 
ATOM     18  C   UNL     1     -17.209  -7.067 -25.036  1.00  0.00     0.143 A 
ATOM     19  N   UNL     1     -16.307  -8.031 -24.825  1.00  0.00    -0.183 NA
ATOM     20  F   UNL     1     -17.283 -10.027 -28.516  1.00  0.00    -0.205 F 
ATOM     21  H   UNL     1     -15.845  -9.643 -25.984  1.00  0.00     0.190 HD
ENDBRANCH   1  11
BRANCH   8  22
ATOM     22  N   UNL     1     -19.917  -4.966 -32.987  1.00  0.00    -0.337 N 
ATOM     23  H   UNL     1     -19.184  -5.162 -32.313  1.00  0.00     0.168 HD
BRANCH  22  24
ATOM     24  C   UNL     1     -19.812  -5.779 -34.142  1.00  0.00     0.080 A 
ATOM     25  C   UNL     1     -20.123  -7.145 -34.052  1.00  0.00     0.079 A 
ATOM     26  C   UNL     1     -19.339  -5.290 -35.373  1.00  0.00     0.150 A 
ATOM     27  C   UNL     1     -20.003  -7.974 -35.170  1.00  0.00     0.163 A 
ATOM     28  C   UNL     1     -19.231  -6.111 -36.493  1.00  0.00     0.092 A 
ATOM     29  C   UNL     1     -19.584  -7.451 -36.397  1.00  0.00     0.164 A 
ATOM     30  O   UNL     1     -20.323  -9.296 -34.988  1.00  0.00    -0.486 OA
ATOM     31  O   UNL     1     -19.476  -8.203 -37.537  1.00  0.00    -0.486 OA
ATOM     32  C   UNL     1     -19.851 -10.104 -36.074  1.00  0.00     0.271 C 
ATOM     33  C   UNL     1     -20.171  -9.450 -37.408  1.00  0.00     0.271 C 
ATOM     34  F   UNL     1     -18.932  -4.017 -35.489  1.00  0.00    -0.205 F 
ENDBRANCH  22  24
ENDBRANCH   8  22
BRANCH   6  35
ATOM     35  N   UNL     1     -24.262  -3.181 -32.840  1.00  0.00    -0.368 N 
ATOM     36  H   UNL     1     -24.471  -2.321 -32.358  1.00  0.00     0.159 HD
ATOM     37  H   UNL     1     -25.023  -3.818 -33.027  1.00  0.00     0.159 HD
ENDBRANCH   6  35
TORSDOF 4
ENDMDL
MODEL 3
REMARK VINA RESULT:    -9.237      4.599      7.797
REMARK INTER + INTRA:         -12.092
REMARK INTER:                 -11.013
REMARK INTRA:                  -1.079
REMARK UNBOUND:                -0.965
REMARK SMILES Nc1nc(Nc2cc3c(cc2F)OCCO3)c2cc(-c3cc(F)c4[nH]ncc4c3)ccc2n1
REMARK SMILES IDX 19 1 18 2 17 3 32 4 33 5 2 6 3 7 4 8 31 9 30 10 20 11 22 12
REMARK SMILES IDX 21 13 24 14 28 15 25 16 29 17 27 18 26 19 23 20 5 22 6 24
REMARK SMILES IDX 7 25 11 26 8 27 10 28 9 29 16 30 13 31 15 32 14 33 12 34
REMARK SMILES IDX 1 35
REMARK H PARENT 25 21 5 23 1 36 1 37
ROOT
ATOM      1  C   UNL     1     -23.866  -4.622 -26.926  1.00  0.00    -0.017 A 
ATOM      2  C   UNL     1     -22.496  -4.413 -27.137  1.00  0.00     0.023 A 
ATOM      3  C   UNL     1     -21.895  -4.616 -28.408  1.00  0.00     0.044 A 
ATOM      4  C   UNL     1     -22.682  -5.019 -29.489  1.00  0.00     0.078 A 
ATOM      5  N   UNL     1     -22.187  -5.214 -30.713  1.00  0.00    -0.213 NA
ATOM      6  C   UNL     1     -20.887  -4.983 -30.893  1.00  0.00     0.222 A 
ATOM      7  N   UNL     1     -20.034  -4.631 -29.936  1.00  0.00    -0.195 NA
ATOM      8  C   UNL     1     -20.533  -4.436 -28.701  1.00  0.00     0.144 A 
ATOM      9  C   UNL     1     -24.037  -5.229 -29.277  1.00  0.00     0.030 A 
ATOM     10  C   UNL     1     -24.629  -5.039 -28.021  1.00  0.00     0.011 A 
ENDROOT
BRANCH   1  11
ATOM     11  C   UNL     1     -24.478  -4.404 -25.606  1.00  0.00    -0.015 A 
ATOM     12  C   UNL     1     -24.467  -3.293 -23.430  1.00  0.00     0.149 A 
ATOM     13  C   UNL     1     -23.899  -3.513 -24.685  1.00  0.00     0.050 A 
ATOM     14  C   UNL     1     -25.629  -3.978 -23.103  1.00  0.00     0.101 A 
ATOM     15  C   UNL     1     -26.238  -4.869 -23.976  1.00  0.00     0.023 A 
ATOM     16  N   UNL     1     -26.402  -3.974 -21.978  1.00  0.00    -0.275 N 
ATOM     17  C   UNL     1     -25.661  -5.087 -25.242  1.00  0.00     0.021 A 
ATOM     18  C   UNL     1     -27.364  -5.337 -23.265  1.00  0.00     0.143 A 
ATOM     19  N   UNL     1     -27.470  -4.794 -22.048  1.00  0.00    -0.183 NA
ATOM     20  F   UNL     1     -23.901  -2.437 -22.570  1.00  0.00    -0.205 F 
ATOM     21  H   UNL     1     -26.256  -3.438 -21.129  1.00  0.00     0.190 HD
ENDBRANCH   1  11
BRANCH   8  22
ATOM     22  N   UNL     1     -19.641  -4.089 -27.646  1.00  0.00    -0.337 N 
ATOM     23  H   UNL     1     -20.104  -3.408 -27.053  1.00  0.00     0.168 HD
BRANCH  22  24
ATOM     24  C   UNL     1     -18.864  -5.007 -26.899  1.00  0.00     0.080 A 
ATOM     25  C   UNL     1     -18.926  -6.375 -27.208  1.00  0.00     0.079 A 
ATOM     26  C   UNL     1     -18.074  -4.615 -25.802  1.00  0.00     0.150 A 
ATOM     27  C   UNL     1     -18.190  -7.303 -26.470  1.00  0.00     0.163 A 
ATOM     28  C   UNL     1     -17.327  -5.536 -25.072  1.00  0.00     0.092 A 
ATOM     29  C   UNL     1     -17.369  -6.881 -25.420  1.00  0.00     0.164 A 
ATOM     30  O   UNL     1     -18.317  -8.618 -26.840  1.00  0.00    -0.486 OA
ATOM     31  O   UNL     1     -16.597  -7.736 -24.678  1.00  0.00    -0.486 OA
ATOM     32  C   UNL     1     -17.804  -9.499 -25.832  1.00  0.00     0.271 C 
ATOM     33  C   UNL     1     -16.458  -9.008 -25.324  1.00  0.00     0.271 C 
ATOM     34  F   UNL     1     -18.056  -3.335 -25.400  1.00  0.00    -0.205 F 
ENDBRANCH  22  24
ENDBRANCH   8  22
BRANCH   6  35
ATOM     35  N   UNL     1     -20.375  -5.188 -32.156  1.00  0.00    -0.368 N 
ATOM     36  H   UNL     1     -19.621  -4.543 -32.337  1.00  0.00     0.159 HD
ATOM     37  H   UNL     1     -21.128  -5.238 -32.827  1.00  0.00     0.159 HD
ENDBRANCH   6  35
TORSDOF 4
ENDMDL
MODEL 4
REMARK VINA RESULT:    -8.836      3.282      5.348
REMARK INTER + INTRA:         -11.609
REMARK INTER:                 -10.794
REMARK INTRA:                  -0.815
REMARK UNBOUND:                -0.965
REMARK SMILES Nc1nc(Nc2cc3c(cc2F)OCCO3)c2cc(-c3cc(F)c4[nH]ncc4c3)ccc2n1
REMARK SMILES IDX 19 1 18 2 17 3 32 4 33 5 2 6 3 7 4 8 31 9 30 10 20 11 22 12
REMARK SMILES IDX 21 13 24 14 28 15 25 16 29 17 27 18 26 19 23 20 5 22 6 24
REMARK SMILES IDX 7 25 11 26 8 27 10 28 9 29 16 30 13 31 15 32 14 33 12 34
REMARK SMILES IDX 1 35
REMARK H PARENT 25 21 5 23 1 36 1 37
ROOT
ATOM      1  C   UNL     1     -18.961  -8.413 -28.665  1.00  0.00    -0.017 A 
ATOM      2  C   UNL     1     -19.228  -7.919 -29.949  1.00  0.00     0.023 A 
ATOM      3  C   UNL     1     -19.654  -8.769 -31.005  1.00  0.00     0.044 A 
ATOM      4  C   UNL     1     -19.832 -10.133 -30.765  1.00  0.00     0.078 A 
ATOM      5  N   UNL     1     -20.244 -10.986 -31.705  1.00  0.00    -0.213 NA
ATOM      6  C   UNL     1     -20.517 -10.488 -32.910  1.00  0.00     0.222 A 
ATOM      7  N   UNL     1     -20.353  -9.217 -33.265  1.00  0.00    -0.195 NA
ATOM      8  C   UNL     1     -19.936  -8.357 -32.318  1.00  0.00     0.144 A 
ATOM      9  C   UNL     1     -19.564 -10.620 -29.494  1.00  0.00     0.030 A 
ATOM     10  C   UNL     1     -19.133  -9.784 -28.454  1.00  0.00     0.011 A 
ENDROOT
BRANCH   1  11
ATOM     11  C   UNL     1     -18.524  -7.521 -27.579  1.00  0.00    -0.015 A 
ATOM     12  C   UNL     1     -17.225  -7.150 -25.544  1.00  0.00     0.149 A 
ATOM     13  C   UNL     1     -17.651  -7.983 -26.578  1.00  0.00     0.050 A 
ATOM     14  C   UNL     1     -17.686  -5.842 -25.519  1.00  0.00     0.101 A 
ATOM     15  C   UNL     1     -18.550  -5.339 -26.482  1.00  0.00     0.023 A 
ATOM     16  N   UNL     1     -17.453  -4.810 -24.655  1.00  0.00    -0.275 N 
ATOM     17  C   UNL     1     -18.977  -6.183 -27.525  1.00  0.00     0.021 A 
ATOM     18  C   UNL     1     -18.766  -4.000 -26.089  1.00  0.00     0.143 A 
ATOM     19  N   UNL     1     -18.098  -3.672 -24.978  1.00  0.00    -0.183 NA
ATOM     20  F   UNL     1     -16.390  -7.609 -24.604  1.00  0.00    -0.205 F 
ATOM     21  H   UNL     1     -16.867  -4.818 -23.826  1.00  0.00     0.190 HD
ENDBRANCH   1  11
BRANCH   8  22
ATOM     22  N   UNL     1     -19.720  -6.995 -32.673  1.00  0.00    -0.337 N 
ATOM     23  H   UNL     1     -19.333  -6.971 -33.611  1.00  0.00     0.168 HD
BRANCH  22  24
ATOM     24  C   UNL     1     -20.631  -5.936 -32.445  1.00  0.00     0.080 A 
ATOM     25  C   UNL     1     -20.992  -5.610 -31.128  1.00  0.00     0.079 A 
ATOM     26  C   UNL     1     -21.254  -5.232 -33.492  1.00  0.00     0.150 A 
ATOM     27  C   UNL     1     -21.909  -4.587 -30.876  1.00  0.00     0.163 A 
ATOM     28  C   UNL     1     -22.159  -4.202 -33.245  1.00  0.00     0.092 A 
ATOM     29  C   UNL     1     -22.471  -3.865 -31.934  1.00  0.00     0.164 A 
ATOM     30  O   UNL     1     -22.206  -4.341 -29.560  1.00  0.00    -0.486 OA
ATOM     31  O   UNL     1     -23.352  -2.830 -31.754  1.00  0.00    -0.486 OA
ATOM     32  C   UNL     1     -23.380  -3.529 -29.429  1.00  0.00     0.271 C 
ATOM     33  C   UNL     1     -23.335  -2.361 -30.400  1.00  0.00     0.271 C 
ATOM     34  F   UNL     1     -21.024  -5.569 -34.770  1.00  0.00    -0.205 F 
ENDBRANCH  22  24
ENDBRANCH   8  22
BRANCH   6  35
ATOM     35  N   UNL     1     -20.939 -11.369 -33.881  1.00  0.00    -0.368 N 
ATOM     36  H   UNL     1     -20.196 -12.007 -34.122  1.00  0.00     0.159 HD
ATOM     37  H   UNL     1     -21.393 -10.864 -34.629  1.00  0.00     0.159 HD
ENDBRANCH   6  35
TORSDOF 4
ENDMDL
MODEL 5
REMARK VINA RESULT:    -8.546      3.801      8.350
REMARK INTER + INTRA:         -11.259
REMARK INTER:                 -10.412
REMARK INTRA:                  -0.847
REMARK UNBOUND:                -0.965
REMARK SMILES Nc1nc(Nc2cc3c(cc2F)OCCO3)c2cc(-c3cc(F)c4[nH]ncc4c3)ccc2n1
REMARK SMILES IDX 19 1 18 2 17 3 32 4 33 5 2 6 3 7 4 8 31 9 30 10 20 11 22 12
REMARK SMILES IDX 21 13 24 14 28 15 25 16 29 17 27 18 26 19 23 20 5 22 6 24
REMARK SMILES IDX 7 25 11 26 8 27 10 28 9 29 16 30 13 31 15 32 14 33 12 34
REMARK SMILES IDX 1 35
REMARK H PARENT 25 21 5 23 1 36 1 37
ROOT
ATOM      1  C   UNL     1     -20.756  -6.141 -31.975  1.00  0.00    -0.017 A 
ATOM      2  C   UNL     1     -20.341  -7.111 -31.052  1.00  0.00     0.023 A 
ATOM      3  C   UNL     1     -19.556  -8.230 -31.443  1.00  0.00     0.044 A 
ATOM      4  C   UNL     1     -19.168  -8.370 -32.777  1.00  0.00     0.078 A 
ATOM      5  N   UNL     1     -18.420  -9.386 -33.210  1.00  0.00    -0.213 NA
ATOM      6  C   UNL     1     -18.015 -10.279 -32.309  1.00  0.00     0.222 A 
ATOM      7  N   UNL     1     -18.350 -10.270 -31.022  1.00  0.00    -0.195 NA
ATOM      8  C   UNL     1     -19.105  -9.246 -30.584  1.00  0.00     0.144 A 
ATOM      9  C   UNL     1     -19.584  -7.410 -33.689  1.00  0.00     0.030 A 
ATOM     10  C   UNL     1     -20.367  -6.312 -33.307  1.00  0.00     0.011 A 
ENDROOT
BRANCH   1  11
ATOM     11  C   UNL     1     -21.565  -4.985 -31.557  1.00  0.00    -0.015 A 
ATOM     12  C   UNL     1     -22.275  -3.422 -29.819  1.00  0.00     0.149 A 
ATOM     13  C   UNL     1     -21.517  -4.518 -30.232  1.00  0.00     0.050 A 
ATOM     14  C   UNL     1     -23.088  -2.794 -30.753  1.00  0.00     0.101 A 
ATOM     15  C   UNL     1     -23.171  -3.218 -32.072  1.00  0.00     0.023 A 
ATOM     16  N   UNL     1     -23.928  -1.722 -30.654  1.00  0.00    -0.275 N 
ATOM     17  C   UNL     1     -22.403  -4.325 -32.483  1.00  0.00     0.021 A 
ATOM     18  C   UNL     1     -24.091  -2.327 -32.665  1.00  0.00     0.143 A 
ATOM     19  N   UNL     1     -24.554  -1.413 -31.807  1.00  0.00    -0.183 NA
ATOM     20  F   UNL     1     -22.211  -2.991 -28.554  1.00  0.00    -0.205 F 
ATOM     21  H   UNL     1     -24.120  -1.160 -29.831  1.00  0.00     0.190 HD
ENDBRANCH   1  11
BRANCH   8  22
ATOM     22  N   UNL     1     -19.507  -9.222 -29.218  1.00  0.00    -0.337 N 
ATOM     23  H   UNL     1     -19.598 -10.182 -28.900  1.00  0.00     0.168 HD
BRANCH  22  24
ATOM     24  C   UNL     1     -18.962  -8.378 -28.221  1.00  0.00     0.080 A 
ATOM     25  C   UNL     1     -19.418  -7.055 -28.114  1.00  0.00     0.079 A 
ATOM     26  C   UNL     1     -17.923  -8.787 -27.365  1.00  0.00     0.150 A 
ATOM     27  C   UNL     1     -18.879  -6.193 -27.156  1.00  0.00     0.163 A 
ATOM     28  C   UNL     1     -17.392  -7.935 -26.399  1.00  0.00     0.092 A 
ATOM     29  C   UNL     1     -17.886  -6.642 -26.281  1.00  0.00     0.164 A 
ATOM     30  O   UNL     1     -19.382  -4.917 -27.129  1.00  0.00    -0.486 OA
ATOM     31  O   UNL     1     -17.339  -5.858 -25.298  1.00  0.00    -0.486 OA
ATOM     32  C   UNL     1     -18.546  -4.040 -26.363  1.00  0.00     0.271 C 
ATOM     33  C   UNL     1     -18.139  -4.695 -25.053  1.00  0.00     0.271 C 
ATOM     34  F   UNL     1     -17.380 -10.008 -27.490  1.00  0.00    -0.205 F 
ENDBRANCH  22  24
ENDBRANCH   8  22
BRANCH   6  35
ATOM     35  N   UNL     1     -17.246 -11.331 -32.758  1.00  0.00    -0.368 N 
ATOM     36  H   UNL     1     -16.855 -11.836 -31.978  1.00  0.00     0.159 HD
ATOM     37  H   UNL     1     -16.616 -11.011 -33.480  1.00  0.00     0.159 HD
ENDBRANCH   6  35
TORSDOF 4
ENDMDL
MODEL 6
REMARK VINA RESULT:    -8.544      7.075     10.490
REMARK INTER + INTRA:         -11.257
REMARK INTER:                 -10.055
REMARK INTRA:                  -1.202
REMARK UNBOUND:                -0.965
REMARK SMILES Nc1nc(Nc2cc3c(cc2F)OCCO3)c2cc(-c3cc(F)c4[nH]ncc4c3)ccc2n1
REMARK SMILES IDX 19 1 18 2 17 3 32 4 33 5 2 6 3 7 4 8 31 9 30 10 20 11 22 12
REMARK SMILES IDX 21 13 24 14 28 15 25 16 29 17 27 18 26 19 23 20 5 22 6 24
REMARK SMILES IDX 7 25 11 26 8 27 10 28 9 29 16 30 13 31 15 32 14 33 12 34
REMARK SMILES IDX 1 35
REMARK H PARENT 25 21 5 23 1 36 1 37
ROOT
ATOM      1  C   UNL     1     -23.080  -5.167 -26.550  1.00  0.00    -0.017 A 
ATOM      2  C   UNL     1     -24.227  -5.557 -25.845  1.00  0.00     0.023 A 
ATOM      3  C   UNL     1     -25.492  -4.952 -26.080  1.00  0.00     0.044 A 
ATOM      4  C   UNL     1     -25.611  -3.952 -27.047  1.00  0.00     0.078 A 
ATOM      5  N   UNL     1     -26.769  -3.352 -27.329  1.00  0.00    -0.213 NA
ATOM      6  C   UNL     1     -27.849  -3.759 -26.665  1.00  0.00     0.222 A 
ATOM      7  N   UNL     1     -27.852  -4.674 -25.701  1.00  0.00    -0.195 NA
ATOM      8  C   UNL     1     -26.685  -5.279 -25.415  1.00  0.00     0.144 A 
ATOM      9  C   UNL     1     -24.473  -3.566 -27.741  1.00  0.00     0.030 A 
ATOM     10  C   UNL     1     -23.223  -4.155 -27.503  1.00  0.00     0.011 A 
ENDROOT
BRANCH   1  11
ATOM     11  C   UNL     1     -21.777  -5.805 -26.301  1.00  0.00    -0.015 A 
ATOM     12  C   UNL     1     -20.409  -7.823 -26.144  1.00  0.00     0.149 A 
ATOM     13  C   UNL     1     -21.637  -7.202 -26.374  1.00  0.00     0.050 A 
ATOM     14  C   UNL     1     -19.315  -7.025 -25.836  1.00  0.00     0.101 A 
ATOM     15  C   UNL     1     -19.403  -5.643 -25.750  1.00  0.00     0.023 A 
ATOM     16  N   UNL     1     -18.012  -7.332 -25.565  1.00  0.00    -0.275 N 
ATOM     17  C   UNL     1     -20.645  -5.021 -25.985  1.00  0.00     0.021 A 
ATOM     18  C   UNL     1     -18.093  -5.232 -25.421  1.00  0.00     0.143 A 
ATOM     19  N   UNL     1     -17.242  -6.256 -25.308  1.00  0.00    -0.183 NA
ATOM     20  F   UNL     1     -20.296  -9.154 -26.223  1.00  0.00    -0.205 F 
ATOM     21  H   UNL     1     -17.586  -8.253 -25.537  1.00  0.00     0.190 HD
ENDBRANCH   1  11
BRANCH   8  22
ATOM     22  N   UNL     1     -26.648  -6.241 -24.366  1.00  0.00    -0.337 N 
ATOM     23  H   UNL     1     -25.977  -6.959 -24.620  1.00  0.00     0.168 HD
BRANCH  22  24
ATOM     24  C   UNL     1     -26.611  -5.941 -22.982  1.00  0.00     0.080 A 
ATOM     25  C   UNL     1     -25.380  -5.957 -22.307  1.00  0.00     0.079 A 
ATOM     26  C   UNL     1     -27.772  -5.692 -22.228  1.00  0.00     0.150 A 
ATOM     27  C   UNL     1     -25.319  -5.691 -20.938  1.00  0.00     0.163 A 
ATOM     28  C   UNL     1     -27.714  -5.413 -20.865  1.00  0.00     0.092 A 
ATOM     29  C   UNL     1     -26.482  -5.391 -20.223  1.00  0.00     0.164 A 
ATOM     30  O   UNL     1     -24.075  -5.734 -20.361  1.00  0.00    -0.486 OA
ATOM     31  O   UNL     1     -26.487  -5.089 -18.886  1.00  0.00    -0.486 OA
ATOM     32  C   UNL     1     -24.160  -5.783 -18.931  1.00  0.00     0.271 C 
ATOM     33  C   UNL     1     -25.170  -4.769 -18.419  1.00  0.00     0.271 C 
ATOM     34  F   UNL     1     -28.983  -5.764 -22.801  1.00  0.00    -0.205 F 
ENDBRANCH  22  24
ENDBRANCH   8  22
BRANCH   6  35
ATOM     35  N   UNL     1     -29.044  -3.136 -26.954  1.00  0.00    -0.368 N 
ATOM     36  H   UNL     1     -28.935  -2.518 -27.743  1.00  0.00     0.159 HD
ATOM     37  H   UNL     1     -29.448  -2.760 -26.108  1.00  0.00     0.159 HD
ENDBRANCH   6  35
TORSDOF 4
ENDMDL
MODEL 7
REMARK VINA RESULT:    -8.497      2.767      3.785
REMARK INTER + INTRA:         -11.200
REMARK INTER:                 -10.083
REMARK INTRA:                  -1.117
REMARK UNBOUND:                -0.965
REMARK SMILES Nc1nc(Nc2cc3c(cc2F)OCCO3)c2cc(-c3cc(F)c4[nH]ncc4c3)ccc2n1
REMARK SMILES IDX 19 1 18 2 17 3 32 4 33 5 2 6 3 7 4 8 31 9 30 10 20 11 22 12
REMARK SMILES IDX 21 13 24 14 28 15 25 16 29 17 27 18 26 19 23 20 5 22 6 24
REMARK SMILES IDX 7 25 11 26 8 27 10 28 9 29 16 30 13 31 15 32 14 33 12 34
REMARK SMILES IDX 1 35
REMARK H PARENT 25 21 5 23 1 36 1 37
ROOT
ATOM      1  C   UNL     1     -20.771  -7.982 -26.479  1.00  0.00    -0.017 A 
ATOM      2  C   UNL     1     -21.238  -7.060 -27.426  1.00  0.00     0.023 A 
ATOM      3  C   UNL     1     -22.572  -7.100 -27.914  1.00  0.00     0.044 A 
ATOM      4  C   UNL     1     -23.455  -8.069 -27.434  1.00  0.00     0.078 A 
ATOM      5  N   UNL     1     -24.724  -8.156 -27.837  1.00  0.00    -0.213 NA
ATOM      6  C   UNL     1     -25.152  -7.251 -28.717  1.00  0.00     0.222 A 
ATOM      7  N   UNL     1     -24.397  -6.308 -29.270  1.00  0.00    -0.195 NA
ATOM      8  C   UNL     1     -23.117  -6.221 -28.864  1.00  0.00     0.144 A 
ATOM      9  C   UNL     1     -22.989  -8.982 -26.499  1.00  0.00     0.030 A 
ATOM     10  C   UNL     1     -21.670  -8.951 -26.025  1.00  0.00     0.011 A 
ENDROOT
BRANCH   1  11
ATOM     11  C   UNL     1     -19.388  -7.927 -25.978  1.00  0.00    -0.015 A 
ATOM     12  C   UNL     1     -17.390  -6.633 -25.429  1.00  0.00     0.149 A 
ATOM     13  C   UNL     1     -18.699  -6.703 -25.904  1.00  0.00     0.050 A 
ATOM     14  C   UNL     1     -16.771  -7.808 -25.027  1.00  0.00     0.101 A 
ATOM     15  C   UNL     1     -17.407  -9.041 -25.081  1.00  0.00     0.023 A 
ATOM     16  N   UNL     1     -15.523  -8.056 -24.528  1.00  0.00    -0.275 N 
ATOM     17  C   UNL     1     -18.729  -9.106 -25.561  1.00  0.00     0.021 A 
ATOM     18  C   UNL     1     -16.444  -9.950 -24.593  1.00  0.00     0.143 A 
ATOM     19  N   UNL     1     -15.296  -9.356 -24.253  1.00  0.00    -0.183 NA
ATOM     20  F   UNL     1     -16.754  -5.457 -25.364  1.00  0.00    -0.205 F 
ATOM     21  H   UNL     1     -14.782  -7.385 -24.354  1.00  0.00     0.190 HD
ENDBRANCH   1  11
BRANCH   8  22
ATOM     22  N   UNL     1     -22.272  -5.241 -29.460  1.00  0.00    -0.337 N 
ATOM     23  H   UNL     1     -21.450  -5.135 -28.874  1.00  0.00     0.168 HD
BRANCH  22  24
ATOM     24  C   UNL     1     -21.958  -5.161 -30.838  1.00  0.00     0.080 A 
ATOM     25  C   UNL     1     -20.999  -6.033 -31.377  1.00  0.00     0.079 A 
ATOM     26  C   UNL     1     -22.519  -4.191 -31.689  1.00  0.00     0.150 A 
ATOM     27  C   UNL     1     -20.652  -5.957 -32.728  1.00  0.00     0.163 A 
ATOM     28  C   UNL     1     -22.186  -4.122 -33.040  1.00  0.00     0.092 A 
ATOM     29  C   UNL     1     -21.265  -5.021 -33.565  1.00  0.00     0.164 A 
ATOM     30  O   UNL     1     -19.701  -6.845 -33.166  1.00  0.00    -0.486 OA
ATOM     31  O   UNL     1     -20.994  -4.916 -34.904  1.00  0.00    -0.486 OA
ATOM     32  C   UNL     1     -19.183  -6.468 -34.448  1.00  0.00     0.271 C 
ATOM     33  C   UNL     1     -20.311  -6.079 -35.390  1.00  0.00     0.271 C 
ATOM     34  F   UNL     1     -23.365  -3.269 -31.205  1.00  0.00    -0.205 F 
ENDBRANCH  22  24
ENDBRANCH   8  22
BRANCH   6  35
ATOM     35  N   UNL     1     -26.462  -7.344 -29.135  1.00  0.00    -0.368 N 
ATOM     36  H   UNL     1     -26.801  -8.286 -29.021  1.00  0.00     0.159 HD
ATOM     37  H   UNL     1     -26.563  -6.909 -30.042  1.00  0.00     0.159 HD
ENDBRANCH   6  35
TORSDOF 4
ENDMDL
MODEL 8
REMARK VINA RESULT:    -8.487      3.633      8.207
REMARK INTER + INTRA:         -11.188
REMARK INTER:                 -10.026
REMARK INTRA:                  -1.162
REMARK UNBOUND:                -0.965
REMARK SMILES Nc1nc(Nc2cc3c(cc2F)OCCO3)c2cc(-c3cc(F)c4[nH]ncc4c3)ccc2n1
REMARK SMILES IDX 19 1 18 2 17 3 32 4 33 5 2 6 3 7 4 8 31 9 30 10 20 11 22 12
REMARK SMILES IDX 21 13 24 14 28 15 25 16 29 17 27 18 26 19 23 20 5 22 6 24
REMARK SMILES IDX 7 25 11 26 8 27 10 28 9 29 16 30 13 31 15 32 14 33 12 34
REMARK SMILES IDX 1 35
REMARK H PARENT 25 21 5 23 1 36 1 37
ROOT
ATOM      1  C   UNL     1     -21.217  -5.091 -31.540  1.00  0.00    -0.017 A 
ATOM      2  C   UNL     1     -20.471  -5.329 -30.377  1.00  0.00     0.023 A 
ATOM      3  C   UNL     1     -21.006  -5.090 -29.082  1.00  0.00     0.044 A 
ATOM      4  C   UNL     1     -22.315  -4.621 -28.952  1.00  0.00     0.078 A 
ATOM      5  N   UNL     1     -22.886  -4.389 -27.768  1.00  0.00    -0.213 NA
ATOM      6  C   UNL     1     -22.166  -4.649 -26.677  1.00  0.00     0.222 A 
ATOM      7  N   UNL     1     -20.903  -5.063 -26.678  1.00  0.00    -0.195 NA
ATOM      8  C   UNL     1     -20.326  -5.296 -27.871  1.00  0.00     0.144 A 
ATOM      9  C   UNL     1     -23.049  -4.383 -30.104  1.00  0.00     0.030 A 
ATOM     10  C   UNL     1     -22.519  -4.608 -31.382  1.00  0.00     0.011 A 
ENDROOT
BRANCH   1  11
ATOM     11  C   UNL     1     -20.652  -5.347 -32.875  1.00  0.00    -0.015 A 
ATOM     12  C   UNL     1     -19.491  -4.541 -34.867  1.00  0.00     0.149 A 
ATOM     13  C   UNL     1     -20.033  -4.315 -33.602  1.00  0.00     0.050 A 
ATOM     14  C   UNL     1     -19.575  -5.819 -35.401  1.00  0.00     0.101 A 
ATOM     15  C   UNL     1     -20.177  -6.871 -34.725  1.00  0.00     0.023 A 
ATOM     16  N   UNL     1     -19.147  -6.340 -36.590  1.00  0.00    -0.275 N 
ATOM     17  C   UNL     1     -20.723  -6.638 -33.447  1.00  0.00     0.021 A 
ATOM     18  C   UNL     1     -20.051  -7.968 -35.605  1.00  0.00     0.143 A 
ATOM     19  N   UNL     1     -19.424  -7.650 -36.741  1.00  0.00    -0.183 NA
ATOM     20  F   UNL     1     -18.903  -3.545 -35.541  1.00  0.00    -0.205 F 
ATOM     21  H   UNL     1     -18.663  -5.855 -37.339  1.00  0.00     0.190 HD
ENDBRANCH   1  11
BRANCH   8  22
ATOM     22  N   UNL     1     -18.964  -5.711 -27.907  1.00  0.00    -0.337 N 
ATOM     23  H   UNL     1     -18.388  -4.925 -27.624  1.00  0.00     0.168 HD
BRANCH  22  24
ATOM     24  C   UNL     1     -18.471  -6.941 -27.409  1.00  0.00     0.080 A 
ATOM     25  C   UNL     1     -17.947  -6.997 -26.108  1.00  0.00     0.079 A 
ATOM     26  C   UNL     1     -18.416  -8.109 -28.191  1.00  0.00     0.150 A 
ATOM     27  C   UNL     1     -17.430  -8.191 -25.602  1.00  0.00     0.163 A 
ATOM     28  C   UNL     1     -17.914  -9.305 -27.686  1.00  0.00     0.092 A 
ATOM     29  C   UNL     1     -17.439  -9.352 -26.381  1.00  0.00     0.164 A 
ATOM     30  O   UNL     1     -16.935  -8.151 -24.323  1.00  0.00    -0.486 OA
ATOM     31  O   UNL     1     -16.977 -10.562 -25.933  1.00  0.00    -0.486 OA
ATOM     32  C   UNL     1     -16.140  -9.307 -24.031  1.00  0.00     0.271 C 
ATOM     33  C   UNL     1     -16.835 -10.571 -24.507  1.00  0.00     0.271 C 
ATOM     34  F   UNL     1     -18.809  -8.087 -29.474  1.00  0.00    -0.205 F 
ENDBRANCH  22  24
ENDBRANCH   8  22
BRANCH   6  35
ATOM     35  N   UNL     1     -22.755  -4.405 -25.455  1.00  0.00    -0.368 N 
ATOM     36  H   UNL     1     -23.759  -4.456 -25.534  1.00  0.00     0.159 HD
ATOM     37  H   UNL     1     -22.353  -3.577 -25.040  1.00  0.00     0.159 HD
ENDBRANCH   6  35
TORSDOF 4
ENDMDL
MODEL 9
REMARK VINA RESULT:    -8.468      6.642      9.861
REMARK INTER + INTRA:         -11.165
REMARK INTER:                 -10.159
REMARK INTRA:                  -1.006
REMARK UNBOUND:                -0.965
REMARK SMILES Nc1nc(Nc2cc3c(cc2F)OCCO3)c2cc(-c3cc(F)c4[nH]ncc4c3)ccc2n1
REMARK SMILES IDX 19 1 18 2 17 3 32 4 33 5 2 6 3 7 4 8 31 9 30 10 20 11 22 12
REMARK SMILES IDX 21 13 24 14 28 15 25 16 29 17 27 18 26 19 23 20 5 22 6 24
REMARK SMILES IDX 7 25 11 26 8 27 10 28 9 29 16 30 13 31 15 32 14 33 12 34
REMARK SMILES IDX 1 35
REMARK H PARENT 25 21 5 23 1 36 1 37
ROOT
ATOM      1  C   UNL     1     -21.446  -4.828 -26.602  1.00  0.00    -0.017 A 
ATOM      2  C   UNL     1     -22.488  -4.719 -25.669  1.00  0.00     0.023 A 
ATOM      3  C   UNL     1     -23.787  -4.283 -26.046  1.00  0.00     0.044 A 
ATOM      4  C   UNL     1     -24.050  -3.967 -27.381  1.00  0.00     0.078 A 
ATOM      5  N   UNL     1     -25.249  -3.566 -27.807  1.00  0.00    -0.213 NA
ATOM      6  C   UNL     1     -26.229  -3.497 -26.908  1.00  0.00     0.222 A 
ATOM      7  N   UNL     1     -26.090  -3.737 -25.608  1.00  0.00    -0.195 NA
ATOM      8  C   UNL     1     -24.881  -4.141 -25.177  1.00  0.00     0.144 A 
ATOM      9  C   UNL     1     -23.016  -4.073 -28.300  1.00  0.00     0.030 A 
ATOM     10  C   UNL     1     -21.732  -4.493 -27.928  1.00  0.00     0.011 A 
ENDROOT
BRANCH   1  11
ATOM     11  C   UNL     1     -20.106  -5.285 -26.199  1.00  0.00    -0.015 A 
ATOM     12  C   UNL     1     -17.747  -4.806 -25.784  1.00  0.00     0.149 A 
ATOM     13  C   UNL     1     -19.023  -4.390 -26.166  1.00  0.00     0.050 A 
ATOM     14  C   UNL     1     -17.565  -6.137 -25.435  1.00  0.00     0.101 A 
ATOM     15  C   UNL     1     -18.601  -7.060 -25.453  1.00  0.00     0.023 A 
ATOM     16  N   UNL     1     -16.460  -6.829 -25.028  1.00  0.00    -0.275 N 
ATOM     17  C   UNL     1     -19.888  -6.634 -25.838  1.00  0.00     0.021 A 
ATOM     18  C   UNL     1     -17.998  -8.268 -25.041  1.00  0.00     0.143 A 
ATOM     19  N   UNL     1     -16.695  -8.132 -24.779  1.00  0.00    -0.183 NA
ATOM     20  F   UNL     1     -16.730  -3.936 -25.756  1.00  0.00    -0.205 F 
ATOM     21  H   UNL     1     -15.518  -6.471 -24.902  1.00  0.00     0.190 HD
ENDBRANCH   1  11
BRANCH   8  22
ATOM     22  N   UNL     1     -24.690  -4.377 -23.785  1.00  0.00    -0.337 N 
ATOM     23  H   UNL     1     -24.521  -3.483 -23.335  1.00  0.00     0.168 HD
BRANCH  22  24
ATOM     24  C   UNL     1     -25.481  -5.237 -22.986  1.00  0.00     0.080 A 
ATOM     25  C   UNL     1     -25.998  -4.764 -21.769  1.00  0.00     0.079 A 
ATOM     26  C   UNL     1     -25.719  -6.581 -23.325  1.00  0.00     0.150 A 
ATOM     27  C   UNL     1     -26.759  -5.600 -20.950  1.00  0.00     0.163 A 
ATOM     28  C   UNL     1     -26.490  -7.414 -22.517  1.00  0.00     0.092 A 
ATOM     29  C   UNL     1     -27.028  -6.916 -21.337  1.00  0.00     0.164 A 
ATOM     30  O   UNL     1     -27.218  -5.055 -19.777  1.00  0.00    -0.486 OA
ATOM     31  O   UNL     1     -27.794  -7.777 -20.594  1.00  0.00    -0.486 OA
ATOM     32  C   UNL     1     -27.684  -6.066 -18.875  1.00  0.00     0.271 C 
ATOM     33  C   UNL     1     -28.556  -7.076 -19.604  1.00  0.00     0.271 C 
ATOM     34  F   UNL     1     -25.166  -7.114 -24.425  1.00  0.00    -0.205 F 
ENDBRANCH  22  24
ENDBRANCH   8  22
BRANCH   6  35
ATOM     35  N   UNL     1     -27.466  -3.079 -27.348  1.00  0.00    -0.368 N 
ATOM     36  H   UNL     1     -28.033  -3.872 -27.605  1.00  0.00     0.159 HD
ATOM     37  H   UNL     1     -27.357  -2.334 -28.022  1.00  0.00     0.159 HD
ENDBRANCH   6  35
TORSDOF 4
ENDMDL
MODEL 10
REMARK VINA RESULT:    -8.457      4.522      7.507
REMARK INTER + INTRA:         -11.152
REMARK INTER:                 -10.285
REMARK INTRA:                  -0.867
REMARK UNBOUND:                -0.965
REMARK SMILES Nc1nc(Nc2cc3c(cc2F)OCCO3)c2cc(-c3cc(F)c4[nH]ncc4c3)ccc2n1
REMARK SMILES IDX 19 1 18 2 17 3 32 4 33 5 2 6 3 7 4 8 31 9 30 10 20 11 22 12
REMARK SMILES IDX 21 13 24 14 28 15 25 16 29 17 27 18 26 19 23 20 5 22 6 24
REMARK SMILES IDX 7 25 11 26 8 27 10 28 9 29 16 30 13 31 15 32 14 33 12 34
REMARK SMILES IDX 1 35
REMARK H PARENT 25 21 5 23 1 36 1 37
ROOT
ATOM      1  C   UNL     1     -20.078  -5.896 -29.236  1.00  0.00    -0.017 A 
ATOM      2  C   UNL     1     -21.086  -5.188 -28.566  1.00  0.00     0.023 A 
ATOM      3  C   UNL     1     -21.944  -4.282 -29.246  1.00  0.00     0.044 A 
ATOM      4  C   UNL     1     -21.800  -4.095 -30.622  1.00  0.00     0.078 A 
ATOM      5  N   UNL     1     -22.579  -3.273 -31.327  1.00  0.00    -0.213 NA
ATOM      6  C   UNL     1     -23.547  -2.632 -30.672  1.00  0.00     0.222 A 
ATOM      7  N   UNL     1     -23.757  -2.703 -29.361  1.00  0.00    -0.195 NA
ATOM      8  C   UNL     1     -22.971  -3.532 -28.650  1.00  0.00     0.144 A 
ATOM      9  C   UNL     1     -20.799  -4.794 -31.283  1.00  0.00     0.030 A 
ATOM     10  C   UNL     1     -19.946  -5.680 -30.611  1.00  0.00     0.011 A 
ENDROOT
BRANCH   1  11
ATOM     11  C   UNL     1     -19.199  -6.835 -28.521  1.00  0.00    -0.015 A 
ATOM     12  C   UNL     1     -17.845  -8.868 -28.507  1.00  0.00     0.149 A 
ATOM     13  C   UNL     1     -18.681  -7.969 -29.170  1.00  0.00     0.050 A 
ATOM     14  C   UNL     1     -17.530  -8.618 -27.179  1.00  0.00     0.101 A 
ATOM     15  C   UNL     1     -18.017  -7.514 -26.493  1.00  0.00     0.023 A 
ATOM     16  N   UNL     1     -16.754  -9.298 -26.283  1.00  0.00    -0.275 N 
ATOM     17  C   UNL     1     -18.861  -6.609 -27.167  1.00  0.00     0.021 A 
ATOM     18  C   UNL     1     -17.468  -7.639 -25.199  1.00  0.00     0.143 A 
ATOM     19  N   UNL     1     -16.697  -8.723 -25.066  1.00  0.00    -0.183 NA
ATOM     20  F   UNL     1     -17.359  -9.939 -29.145  1.00  0.00    -0.205 F 
ATOM     21  H   UNL     1     -16.240 -10.159 -26.439  1.00  0.00     0.190 HD
ENDBRANCH   1  11
BRANCH   8  22
ATOM     22  N   UNL     1     -23.149  -3.607 -27.239  1.00  0.00    -0.337 N 
ATOM     23  H   UNL     1     -22.713  -2.791 -26.822  1.00  0.00     0.168 HD
BRANCH  22  24
ATOM     24  C   UNL     1     -24.354  -3.961 -26.586  1.00  0.00     0.080 A 
ATOM     25  C   UNL     1     -25.356  -4.632 -27.304  1.00  0.00     0.079 A 
ATOM     26  C   UNL     1     -24.627  -3.605 -25.252  1.00  0.00     0.150 A 
ATOM     27  C   UNL     1     -26.564  -4.969 -26.690  1.00  0.00     0.163 A 
ATOM     28  C   UNL     1     -25.825  -3.951 -24.632  1.00  0.00     0.092 A 
ATOM     29  C   UNL     1     -26.788  -4.653 -25.347  1.00  0.00     0.164 A 
ATOM     30  O   UNL     1     -27.487  -5.620 -27.471  1.00  0.00    -0.486 OA
ATOM     31  O   UNL     1     -27.937  -4.983 -24.677  1.00  0.00    -0.486 OA
ATOM     32  C   UNL     1     -28.785  -5.615 -26.863  1.00  0.00     0.271 C 
ATOM     33  C   UNL     1     -28.689  -5.974 -25.389  1.00  0.00     0.271 C 
ATOM     34  F   UNL     1     -23.747  -2.874 -24.549  1.00  0.00    -0.205 F 
ENDBRANCH  22  24
ENDBRANCH   8  22
BRANCH   6  35
ATOM     35  N   UNL     1     -24.349  -1.780 -31.399  1.00  0.00    -0.368 N 
ATOM     36  H   UNL     1     -25.241  -1.665 -30.944  1.00  0.00     0.159 HD
ATOM     37  H   UNL     1     -24.344  -2.051 -32.372  1.00  0.00     0.159 HD
ENDBRANCH   6  35
TORSDOF 4
ENDMDL
MODEL 11
REMARK VINA RESULT:    -8.443      4.199      7.365
REMARK INTER + INTRA:         -11.135
REMARK INTER:                 -10.047
REMARK INTRA:                  -1.088
REMARK UNBOUND:                -0.965
REMARK SMILES Nc1nc(Nc2cc3c(cc2F)OCCO3)c2cc(-c3cc(F)c4[nH]ncc4c3)ccc2n1
REMARK SMILES IDX 19 1 18 2 17 3 32 4 33 5 2 6 3 7 4 8 31 9 30 10 20 11 22 12
REMARK SMILES IDX 21 13 24 14 28 15 25 16 29 17 27 18 26 19 23 20 5 22 6 24
REMARK SMILES IDX 7 25 11 26 8 27 10 28 9 29 16 30 13 31 15 32 14 33 12 34
REMARK SMILES IDX 1 35
REMARK H PARENT 25 21 5 23 1 36 1 37
ROOT
ATOM      1  C   UNL     1     -19.204  -7.975 -32.973  1.00  0.00    -0.017 A 
ATOM      2  C   UNL     1     -19.963  -7.428 -31.928  1.00  0.00     0.023 A 
ATOM      3  C   UNL     1     -20.785  -6.284 -32.120  1.00  0.00     0.044 A 
ATOM      4  C   UNL     1     -20.859  -5.690 -33.381  1.00  0.00     0.078 A 
ATOM      5  N   UNL     1     -21.621  -4.624 -33.636  1.00  0.00    -0.213 NA
ATOM      6  C   UNL     1     -22.353  -4.139 -32.634  1.00  0.00     0.222 A 
ATOM      7  N   UNL     1     -22.337  -4.598 -31.386  1.00  0.00    -0.195 NA
ATOM      8  C   UNL     1     -21.569  -5.672 -31.129  1.00  0.00     0.144 A 
ATOM      9  C   UNL     1     -20.104  -6.232 -34.412  1.00  0.00     0.030 A 
ATOM     10  C   UNL     1     -19.285  -7.353 -34.222  1.00  0.00     0.011 A 
ENDROOT
BRANCH   1  11
ATOM     11  C   UNL     1     -18.361  -9.163 -32.763  1.00  0.00    -0.015 A 
ATOM     12  C   UNL     1     -17.758 -11.457 -33.349  1.00  0.00     0.149 A 
ATOM     13  C   UNL     1     -18.551 -10.323 -33.534  1.00  0.00     0.050 A 
ATOM     14  C   UNL     1     -16.768 -11.417 -32.378  1.00  0.00     0.101 A 
ATOM     15  C   UNL     1     -16.542 -10.297 -31.590  1.00  0.00     0.023 A 
ATOM     16  N   UNL     1     -15.853 -12.347 -31.972  1.00  0.00    -0.275 N 
ATOM     17  C   UNL     1     -17.344  -9.155 -31.781  1.00  0.00     0.021 A 
ATOM     18  C   UNL     1     -15.472 -10.673 -30.750  1.00  0.00     0.143 A 
ATOM     19  N   UNL     1     -15.048 -11.920 -30.979  1.00  0.00    -0.183 NA
ATOM     20  F   UNL     1     -17.953 -12.549 -34.097  1.00  0.00    -0.205 F 
ATOM     21  H   UNL     1     -15.728 -13.288 -32.329  1.00  0.00     0.190 HD
ENDBRANCH   1  11
BRANCH   8  22
ATOM     22  N   UNL     1     -21.506  -6.168 -29.796  1.00  0.00    -0.337 N 
ATOM     23  H   UNL     1     -21.533  -7.182 -29.835  1.00  0.00     0.168 HD
BRANCH  22  24
ATOM     24  C   UNL     1     -20.630  -5.697 -28.788  1.00  0.00     0.080 A 
ATOM     25  C   UNL     1     -19.720  -6.586 -28.195  1.00  0.00     0.079 A 
ATOM     26  C   UNL     1     -20.676  -4.378 -28.299  1.00  0.00     0.150 A 
ATOM     27  C   UNL     1     -18.863  -6.153 -27.181  1.00  0.00     0.163 A 
ATOM     28  C   UNL     1     -19.813  -3.939 -27.298  1.00  0.00     0.092 A 
ATOM     29  C   UNL     1     -18.891  -4.822 -26.752  1.00  0.00     0.164 A 
ATOM     30  O   UNL     1     -18.012  -7.092 -26.656  1.00  0.00    -0.486 OA
ATOM     31  O   UNL     1     -18.055  -4.326 -25.785  1.00  0.00    -0.486 OA
ATOM     32  C   UNL     1     -17.433  -6.645 -25.423  1.00  0.00     0.271 C 
ATOM     33  C   UNL     1     -16.952  -5.209 -25.546  1.00  0.00     0.271 C 
ATOM     34  F   UNL     1     -21.593  -3.514 -28.759  1.00  0.00    -0.205 F 
ENDBRANCH  22  24
ENDBRANCH   8  22
BRANCH   6  35
ATOM     35  N   UNL     1     -23.137  -3.037 -32.896  1.00  0.00    -0.368 N 
ATOM     36  H   UNL     1     -24.108  -3.249 -32.728  1.00  0.00     0.159 HD
ATOM     37  H   UNL     1     -22.885  -2.643 -33.792  1.00  0.00     0.159 HD
ENDBRANCH   6  35
TORSDOF 4
ENDMDL
MODEL 12
REMARK VINA RESULT:    -8.384      3.793      7.542
REMARK INTER + INTRA:         -11.064
REMARK INTER:                  -9.845
REMARK INTRA:                  -1.219
REMARK UNBOUND:                -0.965
REMARK SMILES Nc1nc(Nc2cc3c(cc2F)OCCO3)c2cc(-c3cc(F)c4[nH]ncc4c3)ccc2n1
REMARK SMILES IDX 19 1 18 2 17 3 32 4 33 5 2 6 3 7 4 8 31 9 30 10 20 11 22 12
REMARK SMILES IDX 21 13 24 14 28 15 25 16 29 17 27 18 26 19 23 20 5 22 6 24
REMARK SMILES IDX 7 25 11 26 8 27 10 28 9 29 16 30 13 31 15 32 14 33 12 34
REMARK SMILES IDX 1 35
REMARK H PARENT 25 21 5 23 1 36 1 37
ROOT
ATOM      1  C   UNL     1     -19.672  -5.308 -27.863  1.00  0.00    -0.017 A 
ATOM      2  C   UNL     1     -19.280  -6.654 -27.857  1.00  0.00     0.023 A 
ATOM      3  C   UNL     1     -18.353  -7.159 -26.905  1.00  0.00     0.044 A 
ATOM      4  C   UNL     1     -17.823  -6.304 -25.935  1.00  0.00     0.078 A 
ATOM      5  N   UNL     1     -16.960  -6.714 -25.003  1.00  0.00    -0.213 NA
ATOM      6  C   UNL     1     -16.624  -8.003 -25.001  1.00  0.00     0.222 A 
ATOM      7  N   UNL     1     -17.034  -8.900 -25.893  1.00  0.00    -0.195 NA
ATOM      8  C   UNL     1     -17.904  -8.488 -26.833  1.00  0.00     0.144 A 
ATOM      9  C   UNL     1     -18.210  -4.972 -25.947  1.00  0.00     0.030 A 
ATOM     10  C   UNL     1     -19.117  -4.471 -26.891  1.00  0.00     0.011 A 
ENDROOT
BRANCH   1  11
ATOM     11  C   UNL     1     -20.637  -4.799 -28.851  1.00  0.00    -0.015 A 
ATOM     12  C   UNL     1     -22.654  -3.522 -29.370  1.00  0.00     0.149 A 
ATOM     13  C   UNL     1     -21.732  -4.015 -28.447  1.00  0.00     0.050 A 
ATOM     14  C   UNL     1     -22.468  -3.824 -30.712  1.00  0.00     0.101 A 
ATOM     15  C   UNL     1     -21.405  -4.595 -31.161  1.00  0.00     0.023 A 
ATOM     16  N   UNL     1     -23.184  -3.494 -31.828  1.00  0.00    -0.275 N 
ATOM     17  C   UNL     1     -20.476  -5.090 -30.225  1.00  0.00     0.021 A 
ATOM     18  C   UNL     1     -21.590  -4.661 -32.559  1.00  0.00     0.143 A 
ATOM     19  N   UNL     1     -22.671  -3.991 -32.970  1.00  0.00    -0.183 NA
ATOM     20  F   UNL     1     -23.687  -2.774 -28.964  1.00  0.00    -0.205 F 
ATOM     21  H   UNL     1     -24.031  -2.937 -31.876  1.00  0.00     0.190 HD
ENDBRANCH   1  11
BRANCH   8  22
ATOM     22  N   UNL     1     -18.339  -9.416 -27.822  1.00  0.00    -0.337 N 
ATOM     23  H   UNL     1     -19.208  -9.072 -28.216  1.00  0.00     0.168 HD
BRANCH  22  24
ATOM     24  C   UNL     1     -17.509 -10.017 -28.799  1.00  0.00     0.080 A 
ATOM     25  C   UNL     1     -16.957 -11.283 -28.550  1.00  0.00     0.079 A 
ATOM     26  C   UNL     1     -17.152  -9.367 -29.995  1.00  0.00     0.150 A 
ATOM     27  C   UNL     1     -16.115 -11.887 -29.486  1.00  0.00     0.163 A 
ATOM     28  C   UNL     1     -16.324  -9.971 -30.937  1.00  0.00     0.092 A 
ATOM     29  C   UNL     1     -15.821 -11.243 -30.692  1.00  0.00     0.164 A 
ATOM     30  O   UNL     1     -15.617 -13.122 -29.155  1.00  0.00    -0.486 OA
ATOM     31  O   UNL     1     -15.029 -11.794 -31.665  1.00  0.00    -0.486 OA
ATOM     32  C   UNL     1     -14.524 -13.492 -30.005  1.00  0.00     0.271 C 
ATOM     33  C   UNL     1     -14.853 -13.201 -31.460  1.00  0.00     0.271 C 
ATOM     34  F   UNL     1     -17.570  -8.115 -30.240  1.00  0.00    -0.205 F 
ENDBRANCH  22  24
ENDBRANCH   8  22
BRANCH   6  35
ATOM     35  N   UNL     1     -15.730  -8.424 -24.041  1.00  0.00    -0.368 N 
ATOM     36  H   UNL     1     -16.134  -9.163 -23.486  1.00  0.00     0.159 HD
ATOM     37  H   UNL     1     -15.344  -7.625 -23.558  1.00  0.00     0.159 HD
ENDBRANCH   6  35
TORSDOF 4
ENDMDL
MODEL 13
REMARK VINA RESULT:    -8.371      3.305      8.193
REMARK INTER + INTRA:         -11.049
REMARK INTER:                  -9.908
REMARK INTRA:                  -1.141
REMARK UNBOUND:                -0.965
REMARK SMILES Nc1nc(Nc2cc3c(cc2F)OCCO3)c2cc(-c3cc(F)c4[nH]ncc4c3)ccc2n1
REMARK SMILES IDX 19 1 18 2 17 3 32 4 33 5 2 6 3 7 4 8 31 9 30 10 20 11 22 12
REMARK SMILES IDX 21 13 24 14 28 15 25 16 29 17 27 18 26 19 23 20 5 22 6 24
REMARK SMILES IDX 7 25 11 26 8 27 10 28 9 29 16 30 13 31 15 32 14 33 12 34
REMARK SMILES IDX 1 35
REMARK H PARENT 25 21 5 23 1 36 1 37
ROOT
ATOM      1  C   UNL     1     -19.159  -8.315 -31.697  1.00  0.00    -0.017 A 
ATOM      2  C   UNL     1     -20.002  -7.863 -30.672  1.00  0.00     0.023 A 
ATOM      3  C   UNL     1     -19.614  -7.914 -29.306  1.00  0.00     0.044 A 
ATOM      4  C   UNL     1     -18.355  -8.412 -28.964  1.00  0.00     0.078 A 
ATOM      5  N   UNL     1     -17.919  -8.475 -27.704  1.00  0.00    -0.213 NA
ATOM      6  C   UNL     1     -18.728  -8.014 -26.750  1.00  0.00     0.222 A 
ATOM      7  N   UNL     1     -19.958  -7.553 -26.951  1.00  0.00    -0.195 NA
ATOM      8  C   UNL     1     -20.398  -7.489 -28.221  1.00  0.00     0.144 A 
ATOM      9  C   UNL     1     -17.524  -8.861 -29.980  1.00  0.00     0.030 A 
ATOM     10  C   UNL     1     -17.910  -8.821 -31.327  1.00  0.00     0.011 A 
ENDROOT
BRANCH   1  11
ATOM     11  C   UNL     1     -19.571  -8.252 -33.108  1.00  0.00    -0.015 A 
ATOM     12  C   UNL     1     -20.392  -6.962 -35.014  1.00  0.00     0.149 A 
ATOM     13  C   UNL     1     -20.001  -7.039 -33.677  1.00  0.00     0.050 A 
ATOM     14  C   UNL     1     -20.351  -8.118 -35.781  1.00  0.00     0.101 A 
ATOM     15  C   UNL     1     -19.937  -9.338 -35.266  1.00  0.00     0.023 A 
ATOM     16  N   UNL     1     -20.665  -8.354 -37.089  1.00  0.00    -0.275 N 
ATOM     17  C   UNL     1     -19.542  -9.411 -33.916  1.00  0.00     0.021 A 
ATOM     18  C   UNL     1     -20.047 -10.230 -36.355  1.00  0.00     0.143 A 
ATOM     19  N   UNL     1     -20.488  -9.635 -37.468  1.00  0.00    -0.183 NA
ATOM     20  F   UNL     1     -20.793  -5.797 -35.536  1.00  0.00    -0.205 F 
ATOM     21  H   UNL     1     -21.006  -7.687 -37.773  1.00  0.00     0.190 HD
ENDBRANCH   1  11
BRANCH   8  22
ATOM     22  N   UNL     1     -21.723  -7.028 -28.468  1.00  0.00    -0.337 N 
ATOM     23  H   UNL     1     -22.308  -7.319 -27.691  1.00  0.00     0.168 HD
BRANCH  22  24
ATOM     24  C   UNL     1     -22.065  -5.738 -28.941  1.00  0.00     0.080 A 
ATOM     25  C   UNL     1     -22.609  -5.598 -30.227  1.00  0.00     0.079 A 
ATOM     26  C   UNL     1     -21.818  -4.568 -28.199  1.00  0.00     0.150 A 
ATOM     27  C   UNL     1     -22.931  -4.335 -30.727  1.00  0.00     0.163 A 
ATOM     28  C   UNL     1     -22.150  -3.308 -28.689  1.00  0.00     0.092 A 
ATOM     29  C   UNL     1     -22.727  -3.192 -29.948  1.00  0.00     0.164 A 
ATOM     30  O   UNL     1     -23.452  -4.293 -31.996  1.00  0.00    -0.486 OA
ATOM     31  O   UNL     1     -23.051  -1.928 -30.367  1.00  0.00    -0.486 OA
ATOM     32  C   UNL     1     -23.428  -2.963 -32.530  1.00  0.00     0.271 C 
ATOM     33  C   UNL     1     -23.926  -1.962 -31.500  1.00  0.00     0.271 C 
ATOM     34  F   UNL     1     -21.207  -4.635 -27.006  1.00  0.00    -0.205 F 
ENDBRANCH  22  24
ENDBRANCH   8  22
BRANCH   6  35
ATOM     35  N   UNL     1     -18.280  -8.084 -25.449  1.00  0.00    -0.368 N 
ATOM     36  H   UNL     1     -18.995  -8.468 -24.852  1.00  0.00     0.159 HD
ATOM     37  H   UNL     1     -17.862  -7.203 -25.183  1.00  0.00     0.159 HD
ENDBRANCH   6  35
TORSDOF 4
ENDMDL
MODEL 14
REMARK VINA RESULT:    -8.335      3.437      8.095
REMARK INTER + INTRA:         -11.005
REMARK INTER:                  -9.881
REMARK INTRA:                  -1.124
REMARK UNBOUND:                -0.965
REMARK SMILES Nc1nc(Nc2cc3c(cc2F)OCCO3)c2cc(-c3cc(F)c4[nH]ncc4c3)ccc2n1
REMARK SMILES IDX 19 1 18 2 17 3 32 4 33 5 2 6 3 7 4 8 31 9 30 10 20 11 22 12
REMARK SMILES IDX 21 13 24 14 28 15 25 16 29 17 27 18 26 19 23 20 5 22 6 24
REMARK SMILES IDX 7 25 11 26 8 27 10 28 9 29 16 30 13 31 15 32 14 33 12 34
REMARK SMILES IDX 1 35
REMARK H PARENT 25 21 5 23 1 36 1 37
ROOT
ATOM      1  C   UNL     1     -21.449  -5.306 -30.438  1.00  0.00    -0.017 A 
ATOM      2  C   UNL     1     -20.666  -5.204 -29.280  1.00  0.00     0.023 A 
ATOM      3  C   UNL     1     -21.233  -4.862 -28.022  1.00  0.00     0.044 A 
ATOM      4  C   UNL     1     -22.607  -4.635 -27.921  1.00  0.00     0.078 A 
ATOM      5  N   UNL     1     -23.207  -4.325 -26.770  1.00  0.00    -0.213 NA
ATOM      6  C   UNL     1     -22.446  -4.261 -25.678  1.00  0.00     0.222 A 
ATOM      7  N   UNL     1     -21.127  -4.422 -25.658  1.00  0.00    -0.195 NA
ATOM      8  C   UNL     1     -20.521  -4.734 -26.817  1.00  0.00     0.144 A 
ATOM      9  C   UNL     1     -23.378  -4.733 -29.070  1.00  0.00     0.030 A 
ATOM     10  C   UNL     1     -22.819  -5.059 -30.313  1.00  0.00     0.011 A 
ENDROOT
BRANCH   1  11
ATOM     11  C   UNL     1     -20.851  -5.665 -31.734  1.00  0.00    -0.015 A 
ATOM     12  C   UNL     1     -19.872  -7.341 -33.217  1.00  0.00     0.149 A 
ATOM     13  C   UNL     1     -20.437  -6.984 -31.993  1.00  0.00     0.050 A 
ATOM     14  C   UNL     1     -19.722  -6.359 -34.185  1.00  0.00     0.101 A 
ATOM     15  C   UNL     1     -20.113  -5.044 -33.979  1.00  0.00     0.023 A 
ATOM     16  N   UNL     1     -19.213  -6.400 -35.453  1.00  0.00    -0.275 N 
ATOM     17  C   UNL     1     -20.684  -4.688 -32.742  1.00  0.00     0.021 A 
ATOM     18  C   UNL     1     -19.788  -4.390 -35.187  1.00  0.00     0.143 A 
ATOM     19  N   UNL     1     -19.242  -5.213 -36.089  1.00  0.00    -0.183 NA
ATOM     20  F   UNL     1     -19.488  -8.603 -33.443  1.00  0.00    -0.205 F 
ATOM     21  H   UNL     1     -18.831  -7.204 -35.940  1.00  0.00     0.190 HD
ENDBRANCH   1  11
BRANCH   8  22
ATOM     22  N   UNL     1     -19.105  -4.882 -26.836  1.00  0.00    -0.337 N 
ATOM     23  H   UNL     1     -18.693  -4.029 -26.471  1.00  0.00     0.168 HD
BRANCH  22  24
ATOM     24  C   UNL     1     -18.398  -6.036 -26.418  1.00  0.00     0.080 A 
ATOM     25  C   UNL     1     -18.784  -7.294 -26.908  1.00  0.00     0.079 A 
ATOM     26  C   UNL     1     -17.360  -5.989 -25.470  1.00  0.00     0.150 A 
ATOM     27  C   UNL     1     -18.121  -8.451 -26.492  1.00  0.00     0.163 A 
ATOM     28  C   UNL     1     -16.688  -7.138 -25.062  1.00  0.00     0.092 A 
ATOM     29  C   UNL     1     -17.055  -8.370 -25.591  1.00  0.00     0.164 A 
ATOM     30  O   UNL     1     -18.569  -9.636 -27.018  1.00  0.00    -0.486 OA
ATOM     31  O   UNL     1     -16.343  -9.462 -25.167  1.00  0.00    -0.486 OA
ATOM     32  C   UNL     1     -18.062 -10.760 -26.287  1.00  0.00     0.271 C 
ATOM     33  C   UNL     1     -16.576 -10.596 -26.012  1.00  0.00     0.271 C 
ATOM     34  F   UNL     1     -17.018  -4.826 -24.893  1.00  0.00    -0.205 F 
ENDBRANCH  22  24
ENDBRANCH   8  22
BRANCH   6  35
ATOM     35  N   UNL     1     -23.066  -3.938 -24.491  1.00  0.00    -0.368 N 
ATOM     36  H   UNL     1     -22.833  -2.995 -24.220  1.00  0.00     0.159 HD
ATOM     37  H   UNL     1     -22.920  -4.675 -23.816  1.00  0.00     0.159 HD
ENDBRANCH   6  35
TORSDOF 4
ENDMDL
MODEL 15
REMARK VINA RESULT:    -8.317      1.902      2.473
REMARK INTER + INTRA:         -10.984
REMARK INTER:                  -9.838
REMARK INTRA:                  -1.145
REMARK UNBOUND:                -0.965
REMARK SMILES Nc1nc(Nc2cc3c(cc2F)OCCO3)c2cc(-c3cc(F)c4[nH]ncc4c3)ccc2n1
REMARK SMILES IDX 19 1 18 2 17 3 32 4 33 5 2 6 3 7 4 8 31 9 30 10 20 11 22 12
REMARK SMILES IDX 21 13 24 14 28 15 25 16 29 17 27 18 26 19 23 20 5 22 6 24
REMARK SMILES IDX 7 25 11 26 8 27 10 28 9 29 16 30 13 31 15 32 14 33 12 34
REMARK SMILES IDX 1 35
REMARK H PARENT 25 21 5 23 1 36 1 37
ROOT
ATOM      1  C   UNL     1     -21.105  -6.105 -28.149  1.00  0.00    -0.017 A 
ATOM      2  C   UNL     1     -20.703  -5.985 -29.487  1.00  0.00     0.023 A 
ATOM      3  C   UNL     1     -21.475  -5.265 -30.438  1.00  0.00     0.044 A 
ATOM      4  C   UNL     1     -22.660  -4.642 -30.039  1.00  0.00     0.078 A 
ATOM      5  N   UNL     1     -23.425  -3.938 -30.874  1.00  0.00    -0.213 NA
ATOM      6  C   UNL     1     -23.008  -3.816 -32.134  1.00  0.00     0.222 A 
ATOM      7  N   UNL     1     -21.920  -4.391 -32.636  1.00  0.00    -0.195 NA
ATOM      8  C   UNL     1     -21.148  -5.102 -31.795  1.00  0.00     0.144 A 
ATOM      9  C   UNL     1     -23.056  -4.766 -28.715  1.00  0.00     0.030 A 
ATOM     10  C   UNL     1     -22.301  -5.485 -27.778  1.00  0.00     0.011 A 
ENDROOT
BRANCH   1  11
ATOM     11  C   UNL     1     -20.294  -6.850 -27.172  1.00  0.00    -0.015 A 
ATOM     12  C   UNL     1     -20.040  -8.732 -25.636  1.00  0.00     0.149 A 
ATOM     13  C   UNL     1     -20.797  -8.013 -26.561  1.00  0.00     0.050 A 
ATOM     14  C   UNL     1     -18.768  -8.273 -25.325  1.00  0.00     0.101 A 
ATOM     15  C   UNL     1     -18.228  -7.130 -25.899  1.00  0.00     0.023 A 
ATOM     16  N   UNL     1     -17.810  -8.750 -24.476  1.00  0.00    -0.275 N 
ATOM     17  C   UNL     1     -18.995  -6.408 -26.834  1.00  0.00     0.021 A 
ATOM     18  C   UNL     1     -16.946  -7.022 -25.318  1.00  0.00     0.143 A 
ATOM     19  N   UNL     1     -16.686  -8.006 -24.452  1.00  0.00    -0.183 NA
ATOM     20  F   UNL     1     -20.536  -9.838 -25.068  1.00  0.00    -0.205 F 
ATOM     21  H   UNL     1     -17.861  -9.573 -23.886  1.00  0.00     0.190 HD
ENDBRANCH   1  11
BRANCH   8  22
ATOM     22  N   UNL     1     -19.993  -5.757 -32.308  1.00  0.00    -0.337 N 
ATOM     23  H   UNL     1     -19.304  -5.810 -31.564  1.00  0.00     0.168 HD
BRANCH  22  24
ATOM     24  C   UNL     1     -20.003  -6.924 -33.110  1.00  0.00     0.080 A 
ATOM     25  C   UNL     1     -19.996  -6.799 -34.508  1.00  0.00     0.079 A 
ATOM     26  C   UNL     1     -20.091  -8.218 -32.565  1.00  0.00     0.150 A 
ATOM     27  C   UNL     1     -20.032  -7.933 -35.322  1.00  0.00     0.163 A 
ATOM     28  C   UNL     1     -20.114  -9.352 -33.373  1.00  0.00     0.092 A 
ATOM     29  C   UNL     1     -20.063  -9.211 -34.754  1.00  0.00     0.164 A 
ATOM     30  O   UNL     1     -20.028  -7.715 -36.676  1.00  0.00    -0.486 OA
ATOM     31  O   UNL     1     -20.068 -10.364 -35.495  1.00  0.00    -0.486 OA
ATOM     32  C   UNL     1     -20.403  -8.895 -37.399  1.00  0.00     0.271 C 
ATOM     33  C   UNL     1     -19.678 -10.113 -36.851  1.00  0.00     0.271 C 
ATOM     34  F   UNL     1     -20.203  -8.392 -31.239  1.00  0.00    -0.205 F 
ENDBRANCH  22  24
ENDBRANCH   8  22
BRANCH   6  35
ATOM     35  N   UNL     1     -23.801  -3.092 -32.998  1.00  0.00    -0.368 N 
ATOM     36  H   UNL     1     -23.241  -2.692 -33.735  1.00  0.00     0.159 HD
ATOM     37  H   UNL     1     -24.406  -2.476 -32.473  1.00  0.00     0.159 HD
ENDBRANCH   6  35
TORSDOF 4
ENDMDL
MODEL 16
REMARK VINA RESULT:    -8.290      4.419      7.612
REMARK INTER + INTRA:         -10.951
REMARK INTER:                  -9.840
REMARK INTRA:                  -1.111
REMARK UNBOUND:                -0.965
REMARK SMILES Nc1nc(Nc2cc3c(cc2F)OCCO3)c2cc(-c3cc(F)c4[nH]ncc4c3)ccc2n1
REMARK SMILES IDX 19 1 18 2 17 3 32 4 33 5 2 6 3 7 4 8 31 9 30 10 20 11 22 12
REMARK SMILES IDX 21 13 24 14 28 15 25 16 29 17 27 18 26 19 23 20 5 22 6 24
REMARK SMILES IDX 7 25 11 26 8 27 10 28 9 29 16 30 13 31 15 32 14 33 12 34
REMARK SMILES IDX 1 35
REMARK H PARENT 25 21 5 23 1 36 1 37
ROOT
ATOM      1  C   UNL     1     -23.599  -6.783 -26.473  1.00  0.00    -0.017 A 
ATOM      2  C   UNL     1     -22.474  -6.270 -27.132  1.00  0.00     0.023 A 
ATOM      3  C   UNL     1     -21.256  -6.999 -27.211  1.00  0.00     0.044 A 
ATOM      4  C   UNL     1     -21.171  -8.268 -26.634  1.00  0.00     0.078 A 
ATOM      5  N   UNL     1     -20.065  -9.013 -26.683  1.00  0.00    -0.213 NA
ATOM      6  C   UNL     1     -19.017  -8.515 -27.339  1.00  0.00     0.222 A 
ATOM      7  N   UNL     1     -18.969  -7.308 -27.895  1.00  0.00    -0.195 NA
ATOM      8  C   UNL     1     -20.083  -6.556 -27.845  1.00  0.00     0.144 A 
ATOM      9  C   UNL     1     -22.286  -8.771 -25.980  1.00  0.00     0.030 A 
ATOM     10  C   UNL     1     -23.484  -8.049 -25.892  1.00  0.00     0.011 A 
ENDROOT
BRANCH   1  11
ATOM     11  C   UNL     1     -24.856  -6.020 -26.403  1.00  0.00    -0.015 A 
ATOM     12  C   UNL     1     -26.064  -3.994 -25.769  1.00  0.00     0.149 A 
ATOM     13  C   UNL     1     -24.882  -4.731 -25.841  1.00  0.00     0.050 A 
ATOM     14  C   UNL     1     -27.228  -4.564 -26.266  1.00  0.00     0.101 A 
ATOM     15  C   UNL     1     -27.255  -5.832 -26.828  1.00  0.00     0.023 A 
ATOM     16  N   UNL     1     -28.511  -4.100 -26.336  1.00  0.00    -0.275 N 
ATOM     17  C   UNL     1     -26.059  -6.573 -26.899  1.00  0.00     0.021 A 
ATOM     18  C   UNL     1     -28.605  -6.022 -27.195  1.00  0.00     0.143 A 
ATOM     19  N   UNL     1     -29.373  -4.969 -26.899  1.00  0.00    -0.183 NA
ATOM     20  F   UNL     1     -26.066  -2.767 -25.235  1.00  0.00    -0.205 F 
ATOM     21  H   UNL     1     -28.863  -3.204 -26.016  1.00  0.00     0.190 HD
ENDBRANCH   1  11
BRANCH   8  22
ATOM     22  N   UNL     1     -20.055  -5.246 -28.404  1.00  0.00    -0.337 N 
ATOM     23  H   UNL     1     -19.085  -4.954 -28.472  1.00  0.00     0.168 HD
BRANCH  22  24
ATOM     24  C   UNL     1     -20.822  -4.814 -29.513  1.00  0.00     0.080 A 
ATOM     25  C   UNL     1     -21.650  -3.689 -29.380  1.00  0.00     0.079 A 
ATOM     26  C   UNL     1     -20.846  -5.509 -30.736  1.00  0.00     0.150 A 
ATOM     27  C   UNL     1     -22.437  -3.257 -30.450  1.00  0.00     0.163 A 
ATOM     28  C   UNL     1     -21.619  -5.074 -31.810  1.00  0.00     0.092 A 
ATOM     29  C   UNL     1     -22.400  -3.933 -31.673  1.00  0.00     0.164 A 
ATOM     30  O   UNL     1     -23.219  -2.152 -30.228  1.00  0.00    -0.486 OA
ATOM     31  O   UNL     1     -23.122  -3.543 -32.771  1.00  0.00    -0.486 OA
ATOM     32  C   UNL     1     -24.216  -2.001 -31.247  1.00  0.00     0.271 C 
ATOM     33  C   UNL     1     -23.608  -2.202 -32.626  1.00  0.00     0.271 C 
ATOM     34  F   UNL     1     -20.152  -6.648 -30.885  1.00  0.00    -0.205 F 
ENDBRANCH  22  24
ENDBRANCH   8  22
BRANCH   6  35
ATOM     35  N   UNL     1     -17.874  -9.283 -27.386  1.00  0.00    -0.368 N 
ATOM     36  H   UNL     1     -17.258  -9.040 -26.625  1.00  0.00     0.159 HD
ATOM     37  H   UNL     1     -17.497  -9.279 -28.322  1.00  0.00     0.159 HD
ENDBRANCH   6  35
TORSDOF 4
ENDMDL
MODEL 17
REMARK VINA RESULT:    -8.214      4.398      7.299
REMARK INTER + INTRA:         -10.859
REMARK INTER:                  -9.539
REMARK INTRA:                  -1.320
REMARK UNBOUND:                -0.965
REMARK SMILES Nc1nc(Nc2cc3c(cc2F)OCCO3)c2cc(-c3cc(F)c4[nH]ncc4c3)ccc2n1
REMARK SMILES IDX 19 1 18 2 17 3 32 4 33 5 2 6 3 7 4 8 31 9 30 10 20 11 22 12
REMARK SMILES IDX 21 13 24 14 28 15 25 16 29 17 27 18 26 19 23 20 5 22 6 24
REMARK SMILES IDX 7 25 11 26 8 27 10 28 9 29 16 30 13 31 15 32 14 33 12 34
REMARK SMILES IDX 1 35
REMARK H PARENT 25 21 5 23 1 36 1 37
ROOT
ATOM      1  C   UNL     1     -20.732  -6.046 -30.944  1.00  0.00    -0.017 A 
ATOM      2  C   UNL     1     -21.477  -5.210 -30.101  1.00  0.00     0.023 A 
ATOM      3  C   UNL     1     -22.297  -4.168 -30.615  1.00  0.00     0.044 A 
ATOM      4  C   UNL     1     -22.382  -3.972 -31.995  1.00  0.00     0.078 A 
ATOM      5  N   UNL     1     -23.142  -3.024 -32.546  1.00  0.00    -0.213 NA
ATOM      6  C   UNL     1     -23.862  -2.260 -31.726  1.00  0.00     0.222 A 
ATOM      7  N   UNL     1     -23.836  -2.330 -30.399  1.00  0.00    -0.195 NA
ATOM      8  C   UNL     1     -23.069  -3.285 -29.842  1.00  0.00     0.144 A 
ATOM      9  C   UNL     1     -21.640  -4.799 -32.826  1.00  0.00     0.030 A 
ATOM     10  C   UNL     1     -20.823  -5.819 -32.320  1.00  0.00     0.011 A 
ENDROOT
BRANCH   1  11
ATOM     11  C   UNL     1     -19.890  -7.124 -30.400  1.00  0.00    -0.015 A 
ATOM     12  C   UNL     1     -18.787  -9.286 -30.676  1.00  0.00     0.149 A 
ATOM     13  C   UNL     1     -19.585  -8.256 -31.175  1.00  0.00     0.050 A 
ATOM     14  C   UNL     1     -18.295  -9.170 -29.383  1.00  0.00     0.101 A 
ATOM     15  C   UNL     1     -18.569  -8.074 -28.578  1.00  0.00     0.023 A 
ATOM     16  N   UNL     1     -17.506  -9.994 -28.632  1.00  0.00    -0.275 N 
ATOM     17  C   UNL     1     -19.375  -7.037 -29.087  1.00  0.00     0.021 A 
ATOM     18  C   UNL     1     -17.894  -8.353 -27.370  1.00  0.00     0.143 A 
ATOM     19  N   UNL     1     -17.243  -9.520 -27.399  1.00  0.00    -0.183 NA
ATOM     20  F   UNL     1     -18.506 -10.353 -31.432  1.00  0.00    -0.205 F 
ATOM     21  H   UNL     1     -17.116 -10.891 -28.902  1.00  0.00     0.190 HD
ENDBRANCH   1  11
BRANCH   8  22
ATOM     22  N   UNL     1     -22.994  -3.366 -28.422  1.00  0.00    -0.337 N 
ATOM     23  H   UNL     1     -22.940  -2.422 -28.055  1.00  0.00     0.168 HD
BRANCH  22  24
ATOM     24  C   UNL     1     -23.787  -4.211 -27.609  1.00  0.00     0.080 A 
ATOM     25  C   UNL     1     -25.161  -3.954 -27.483  1.00  0.00     0.079 A 
ATOM     26  C   UNL     1     -23.243  -5.269 -26.857  1.00  0.00     0.150 A 
ATOM     27  C   UNL     1     -25.961  -4.757 -26.666  1.00  0.00     0.163 A 
ATOM     28  C   UNL     1     -24.039  -6.080 -26.052  1.00  0.00     0.092 A 
ATOM     29  C   UNL     1     -25.405  -5.836 -25.973  1.00  0.00     0.164 A 
ATOM     30  O   UNL     1     -27.291  -4.428 -26.600  1.00  0.00    -0.486 OA
ATOM     31  O   UNL     1     -26.139  -6.681 -25.182  1.00  0.00    -0.486 OA
ATOM     32  C   UNL     1     -27.939  -5.082 -25.501  1.00  0.00     0.271 C 
ATOM     33  C   UNL     1     -27.543  -6.548 -25.440  1.00  0.00     0.271 C 
ATOM     34  F   UNL     1     -21.920  -5.496 -26.861  1.00  0.00    -0.205 F 
ENDBRANCH  22  24
ENDBRANCH   8  22
BRANCH   6  35
ATOM     35  N   UNL     1     -24.644  -1.278 -32.295  1.00  0.00    -0.368 N 
ATOM     36  H   UNL     1     -24.469  -0.390 -31.852  1.00  0.00     0.159 HD
ATOM     37  H   UNL     1     -25.601  -1.597 -32.360  1.00  0.00     0.159 HD
ENDBRANCH   6  35
TORSDOF 4
ENDMDL
MODEL 18
REMARK VINA RESULT:    -8.127      4.011      5.625
REMARK INTER + INTRA:         -10.754
REMARK INTER:                  -9.559
REMARK INTRA:                  -1.195
REMARK UNBOUND:                -0.965
REMARK SMILES Nc1nc(Nc2cc3c(cc2F)OCCO3)c2cc(-c3cc(F)c4[nH]ncc4c3)ccc2n1
REMARK SMILES IDX 19 1 18 2 17 3 32 4 33 5 2 6 3 7 4 8 31 9 30 10 20 11 22 12
REMARK SMILES IDX 21 13 24 14 28 15 25 16 29 17 27 18 26 19 23 20 5 22 6 24
REMARK SMILES IDX 7 25 11 26 8 27 10 28 9 29 16 30 13 31 15 32 14 33 12 34
REMARK SMILES IDX 1 35
REMARK H PARENT 25 21 5 23 1 36 1 37
ROOT
ATOM      1  C   UNL     1     -20.501  -5.683 -31.525  1.00  0.00    -0.017 A 
ATOM      2  C   UNL     1     -20.237  -6.981 -31.983  1.00  0.00     0.023 A 
ATOM      3  C   UNL     1     -20.169  -7.286 -33.370  1.00  0.00     0.044 A 
ATOM      4  C   UNL     1     -20.352  -6.270 -34.310  1.00  0.00     0.078 A 
ATOM      5  N   UNL     1     -20.287  -6.481 -35.626  1.00  0.00    -0.213 NA
ATOM      6  C   UNL     1     -20.009  -7.718 -36.037  1.00  0.00     0.222 A 
ATOM      7  N   UNL     1     -19.851  -8.769 -35.239  1.00  0.00    -0.195 NA
ATOM      8  C   UNL     1     -19.917  -8.557 -33.912  1.00  0.00     0.144 A 
ATOM      9  C   UNL     1     -20.617  -4.987 -33.853  1.00  0.00     0.030 A 
ATOM     10  C   UNL     1     -20.694  -4.688 -32.486  1.00  0.00     0.011 A 
ENDROOT
BRANCH   1  11
ATOM     11  C   UNL     1     -20.564  -5.380 -30.086  1.00  0.00    -0.015 A 
ATOM     12  C   UNL     1     -21.541  -4.123 -28.233  1.00  0.00     0.149 A 
ATOM     13  C   UNL     1     -21.466  -4.420 -29.594  1.00  0.00     0.050 A 
ATOM     14  C   UNL     1     -20.697  -4.800 -27.363  1.00  0.00     0.101 A 
ATOM     15  C   UNL     1     -19.789  -5.754 -27.799  1.00  0.00     0.023 A 
ATOM     16  N   UNL     1     -20.539  -4.729 -26.008  1.00  0.00    -0.275 N 
ATOM     17  C   UNL     1     -19.718  -6.051 -29.174  1.00  0.00     0.021 A 
ATOM     18  C   UNL     1     -19.143  -6.184 -26.620  1.00  0.00     0.143 A 
ATOM     19  N   UNL     1     -19.598  -5.564 -25.526  1.00  0.00    -0.183 NA
ATOM     20  F   UNL     1     -22.410  -3.208 -27.785  1.00  0.00    -0.205 F 
ATOM     21  H   UNL     1     -21.040  -4.133 -25.357  1.00  0.00     0.190 HD
ENDBRANCH   1  11
BRANCH   8  22
ATOM     22  N   UNL     1     -19.783  -9.667 -33.030  1.00  0.00    -0.337 N 
ATOM     23  H   UNL     1     -20.571 -10.288 -33.183  1.00  0.00     0.168 HD
BRANCH  22  24
ATOM     24  C   UNL     1     -18.583 -10.378 -32.788  1.00  0.00     0.080 A 
ATOM     25  C   UNL     1     -17.694  -9.915 -31.804  1.00  0.00     0.079 A 
ATOM     26  C   UNL     1     -18.201 -11.502 -33.543  1.00  0.00     0.150 A 
ATOM     27  C   UNL     1     -16.492 -10.583 -31.564  1.00  0.00     0.163 A 
ATOM     28  C   UNL     1     -17.009 -12.179 -33.297  1.00  0.00     0.092 A 
ATOM     29  C   UNL     1     -16.162 -11.731 -32.291  1.00  0.00     0.164 A 
ATOM     30  O   UNL     1     -15.684 -10.056 -30.588  1.00  0.00    -0.486 OA
ATOM     31  O   UNL     1     -15.014 -12.450 -32.082  1.00  0.00    -0.486 OA
ATOM     32  C   UNL     1     -14.359 -10.598 -30.654  1.00  0.00     0.271 C 
ATOM     33  C   UNL     1     -14.404 -12.107 -30.831  1.00  0.00     0.271 C 
ATOM     34  F   UNL     1     -18.963 -11.928 -34.562  1.00  0.00    -0.205 F 
ENDBRANCH  22  24
ENDBRANCH   8  22
BRANCH   6  35
ATOM     35  N   UNL     1     -19.946  -7.937 -37.396  1.00  0.00    -0.368 N 
ATOM     36  H   UNL     1     -20.697  -8.542 -37.688  1.00  0.00     0.159 HD
ATOM     37  H   UNL     1     -19.003  -8.188 -37.659  1.00  0.00     0.159 HD
ENDBRANCH   6  35
TORSDOF 4
ENDMDL
MODEL 19
REMARK VINA RESULT:    -8.104      7.218     10.432
REMARK INTER + INTRA:         -10.726
REMARK INTER:                  -9.483
REMARK INTRA:                  -1.244
REMARK UNBOUND:                -0.965
REMARK SMILES Nc1nc(Nc2cc3c(cc2F)OCCO3)c2cc(-c3cc(F)c4[nH]ncc4c3)ccc2n1
REMARK SMILES IDX 19 1 18 2 17 3 32 4 33 5 2 6 3 7 4 8 31 9 30 10 20 11 22 12
REMARK SMILES IDX 21 13 24 14 28 15 25 16 29 17 27 18 26 19 23 20 5 22 6 24
REMARK SMILES IDX 7 25 11 26 8 27 10 28 9 29 16 30 13 31 15 32 14 33 12 34
REMARK SMILES IDX 1 35
REMARK H PARENT 25 21 5 23 1 36 1 37
ROOT
ATOM      1  C   UNL     1     -23.231  -5.771 -26.638  1.00  0.00    -0.017 A 
ATOM      2  C   UNL     1     -24.106  -5.122 -25.756  1.00  0.00     0.023 A 
ATOM      3  C   UNL     1     -25.489  -4.973 -26.048  1.00  0.00     0.044 A 
ATOM      4  C   UNL     1     -26.005  -5.498 -27.234  1.00  0.00     0.078 A 
ATOM      5  N   UNL     1     -27.295  -5.408 -27.565  1.00  0.00    -0.213 NA
ATOM      6  C   UNL     1     -28.111  -4.810 -26.698  1.00  0.00     0.222 A 
ATOM      7  N   UNL     1     -27.730  -4.243 -25.558  1.00  0.00    -0.195 NA
ATOM      8  C   UNL     1     -26.429  -4.332 -25.224  1.00  0.00     0.144 A 
ATOM      9  C   UNL     1     -25.136  -6.137 -28.107  1.00  0.00     0.030 A 
ATOM     10  C   UNL     1     -23.770  -6.275 -27.825  1.00  0.00     0.011 A 
ENDROOT
BRANCH   1  11
ATOM     11  C   UNL     1     -21.802  -5.923 -26.322  1.00  0.00    -0.015 A 
ATOM     12  C   UNL     1     -19.864  -7.360 -25.939  1.00  0.00     0.149 A 
ATOM     13  C   UNL     1     -21.217  -7.199 -26.235  1.00  0.00     0.050 A 
ATOM     14  C   UNL     1     -19.095  -6.224 -25.728  1.00  0.00     0.101 A 
ATOM     15  C   UNL     1     -19.625  -4.943 -25.800  1.00  0.00     0.023 A 
ATOM     16  N   UNL     1     -17.773  -6.061 -25.428  1.00  0.00    -0.275 N 
ATOM     17  C   UNL     1     -20.992  -4.785 -26.100  1.00  0.00     0.021 A 
ATOM     18  C   UNL     1     -18.529  -4.097 -25.524  1.00  0.00     0.143 A 
ATOM     19  N   UNL     1     -17.398  -4.773 -25.298  1.00  0.00    -0.183 NA
ATOM     20  F   UNL     1     -19.326  -8.584 -25.866  1.00  0.00    -0.205 F 
ATOM     21  H   UNL     1     -17.075  -6.786 -25.296  1.00  0.00     0.190 HD
ENDBRANCH   1  11
BRANCH   8  22
ATOM     22  N   UNL     1     -25.983  -3.709 -24.024  1.00  0.00    -0.337 N 
ATOM     23  H   UNL     1     -26.444  -2.808 -23.947  1.00  0.00     0.168 HD
BRANCH  22  24
ATOM     24  C   UNL     1     -25.851  -4.351 -22.769  1.00  0.00     0.080 A 
ATOM     25  C   UNL     1     -26.993  -4.869 -22.138  1.00  0.00     0.079 A 
ATOM     26  C   UNL     1     -24.625  -4.434 -22.084  1.00  0.00     0.150 A 
ATOM     27  C   UNL     1     -26.894  -5.484 -20.888  1.00  0.00     0.163 A 
ATOM     28  C   UNL     1     -24.520  -5.058 -20.844  1.00  0.00     0.092 A 
ATOM     29  C   UNL     1     -25.654  -5.603 -20.254  1.00  0.00     0.164 A 
ATOM     30  O   UNL     1     -28.062  -5.956 -20.344  1.00  0.00    -0.486 OA
ATOM     31  O   UNL     1     -25.485  -6.223 -19.043  1.00  0.00    -0.486 OA
ATOM     32  C   UNL     1     -27.911  -6.252 -18.950  1.00  0.00     0.271 C 
ATOM     33  C   UNL     1     -26.624  -7.022 -18.702  1.00  0.00     0.271 C 
ATOM     34  F   UNL     1     -23.521  -3.867 -22.595  1.00  0.00    -0.205 F 
ENDBRANCH  22  24
ENDBRANCH   8  22
BRANCH   6  35
ATOM     35  N   UNL     1     -29.442  -4.714 -27.042  1.00  0.00    -0.368 N 
ATOM     36  H   UNL     1     -29.536  -4.482 -28.019  1.00  0.00     0.159 HD
ATOM     37  H   UNL     1     -29.929  -4.139 -26.369  1.00  0.00     0.159 HD
ENDBRANCH   6  35
TORSDOF 4
ENDMDL
MODEL 20
REMARK VINA RESULT:    -8.063      4.955      8.189
REMARK INTER + INTRA:         -10.678
REMARK INTER:                  -9.494
REMARK INTRA:                  -1.184
REMARK UNBOUND:                -0.965
REMARK SMILES Nc1nc(Nc2cc3c(cc2F)OCCO3)c2cc(-c3cc(F)c4[nH]ncc4c3)ccc2n1
REMARK SMILES IDX 19 1 18 2 17 3 32 4 33 5 2 6 3 7 4 8 31 9 30 10 20 11 22 12
REMARK SMILES IDX 21 13 24 14 28 15 25 16 29 17 27 18 26 19 23 20 5 22 6 24
REMARK SMILES IDX 7 25 11 26 8 27 10 28 9 29 16 30 13 31 15 32 14 33 12 34
REMARK SMILES IDX 1 35
REMARK H PARENT 25 21 5 23 1 36 1 37
ROOT
ATOM      1  C   UNL     1     -24.648  -7.205 -26.237  1.00  0.00    -0.017 A 
ATOM      2  C   UNL     1     -23.431  -6.600 -26.577  1.00  0.00     0.023 A 
ATOM      3  C   UNL     1     -22.195  -7.294 -26.471  1.00  0.00     0.044 A 
ATOM      4  C   UNL     1     -22.182  -8.619 -26.032  1.00  0.00     0.078 A 
ATOM      5  N   UNL     1     -21.061  -9.335 -25.923  1.00  0.00    -0.213 NA
ATOM      6  C   UNL     1     -19.919  -8.746 -26.278  1.00  0.00     0.222 A 
ATOM      7  N   UNL     1     -19.804  -7.483 -26.676  1.00  0.00    -0.195 NA
ATOM      8  C   UNL     1     -20.933  -6.761 -26.785  1.00  0.00     0.144 A 
ATOM      9  C   UNL     1     -23.388  -9.214 -25.692  1.00  0.00     0.030 A 
ATOM     10  C   UNL     1     -24.607  -8.527 -25.786  1.00  0.00     0.011 A 
ENDROOT
BRANCH   1  11
ATOM     11  C   UNL     1     -25.922  -6.477 -26.355  1.00  0.00    -0.015 A 
ATOM     12  C   UNL     1     -27.146  -4.439 -26.919  1.00  0.00     0.149 A 
ATOM     13  C   UNL     1     -25.947  -5.143 -26.799  1.00  0.00     0.050 A 
ATOM     14  C   UNL     1     -28.327  -5.088 -26.589  1.00  0.00     0.101 A 
ATOM     15  C   UNL     1     -28.355  -6.403 -26.146  1.00  0.00     0.023 A 
ATOM     16  N   UNL     1     -29.629  -4.674 -26.603  1.00  0.00    -0.275 N 
ATOM     17  C   UNL     1     -27.142  -7.109 -26.026  1.00  0.00     0.021 A 
ATOM     18  C   UNL     1     -29.724  -6.666 -25.924  1.00  0.00     0.143 A 
ATOM     19  N   UNL     1     -30.504  -5.617 -26.203  1.00  0.00    -0.183 NA
ATOM     20  F   UNL     1     -27.148  -3.171 -27.347  1.00  0.00    -0.205 F 
ATOM     21  H   UNL     1     -29.985  -3.763 -26.873  1.00  0.00     0.190 HD
ENDBRANCH   1  11
BRANCH   8  22
ATOM     22  N   UNL     1     -20.841  -5.395 -27.179  1.00  0.00    -0.337 N 
ATOM     23  H   UNL     1     -19.876  -5.100 -27.070  1.00  0.00     0.168 HD
BRANCH  22  24
ATOM     24  C   UNL     1     -21.445  -4.834 -28.330  1.00  0.00     0.080 A 
ATOM     25  C   UNL     1     -21.081  -5.309 -29.599  1.00  0.00     0.079 A 
ATOM     26  C   UNL     1     -22.352  -3.760 -28.264  1.00  0.00     0.150 A 
ATOM     27  C   UNL     1     -21.642  -4.754 -30.752  1.00  0.00     0.163 A 
ATOM     28  C   UNL     1     -22.924  -3.214 -29.410  1.00  0.00     0.092 A 
ATOM     29  C   UNL     1     -22.584  -3.726 -30.656  1.00  0.00     0.164 A 
ATOM     30  O   UNL     1     -21.224  -5.278 -31.949  1.00  0.00    -0.486 OA
ATOM     31  O   UNL     1     -23.195  -3.161 -31.745  1.00  0.00    -0.486 OA
ATOM     32  C   UNL     1     -21.590  -4.434 -33.048  1.00  0.00     0.271 C 
ATOM     33  C   UNL     1     -23.032  -3.973 -32.914  1.00  0.00     0.271 C 
ATOM     34  F   UNL     1     -22.658  -3.200 -27.083  1.00  0.00    -0.205 F 
ENDBRANCH  22  24
ENDBRANCH   8  22
BRANCH   6  35
ATOM     35  N   UNL     1     -18.761  -9.484 -26.162  1.00  0.00    -0.368 N 
ATOM     36  H   UNL     1     -18.263  -9.494 -27.038  1.00  0.00     0.159 HD
ATOM     37  H   UNL     1     -18.962 -10.370 -25.720  1.00  0.00     0.159 HD
ENDBRANCH   6  35
TORSDOF 4
ENDMDL
