MODEL 1
REMARK VINA RESULT:    -9.989      0.000      0.000
REMARK INTER + INTRA:         -14.138
REMARK INTER:                 -12.617
REMARK INTRA:                  -1.520
REMARK UNBOUND:                -1.520
REMARK SMILES C[C@@H]1CN(C(=O)c2cccc(Nc3nc(N)nc4ccc(-c5ccc6[nH]ncc6c5)cc34)c2)C[C@@H](C)O1
REMARK SMILES IDX 12 1 13 3 21 4 31 5 20 6 32 7 19 8 18 9 17 10 14 11 15 12
REMARK SMILES IDX 22 13 30 14 23 15 29 16 24 17 25 18 28 19 26 20 27 21 16 23
REMARK SMILES IDX 11 26 33 27 10 28 7 29 9 30 8 31 5 32 4 33 34 34 3 35 35 36
REMARK SMILES IDX 2 37 37 38 6 39 36 40 1 41
REMARK H PARENT 12 2 26 22 16 24 16 25
ROOT
ATOM      1  N   UNL     1     -20.259  -5.091 -32.580  1.00  0.00    -0.340 N 
ATOM      2  H   UNL     1     -19.687  -4.380 -33.022  1.00  0.00     0.168 HD
ENDROOT
BRANCH   1   3
ATOM      3  C   UNL     1     -21.367  -4.456 -31.950  1.00  0.00     0.143 A 
ATOM      4  C   UNL     1     -20.425  -4.624 -28.288  1.00  0.00    -0.017 A 
ATOM      5  C   UNL     1     -20.358  -4.816 -29.675  1.00  0.00     0.023 A 
ATOM      6  C   UNL     1     -21.525  -3.923 -27.785  1.00  0.00     0.011 A 
ATOM      7  C   UNL     1     -21.364  -4.319 -30.550  1.00  0.00     0.044 A 
ATOM      8  C   UNL     1     -22.520  -3.445 -28.645  1.00  0.00     0.030 A 
ATOM      9  C   UNL     1     -22.462  -3.638 -30.018  1.00  0.00     0.078 A 
ATOM     10  N   UNL     1     -23.456  -3.166 -30.772  1.00  0.00    -0.213 NA
ATOM     11  N   UNL     1     -22.380  -3.995 -32.703  1.00  0.00    -0.195 NA
ATOM     12  C   UNL     1     -23.389  -3.391 -32.083  1.00  0.00     0.222 A 
BRANCH   4  13
ATOM     13  C   UNL     1     -19.378  -5.150 -27.396  1.00  0.00    -0.018 A 
ATOM     14  C   UNL     1     -19.104  -6.532 -27.351  1.00  0.00     0.020 A 
ATOM     15  C   UNL     1     -18.639  -4.285 -26.570  1.00  0.00     0.011 A 
ATOM     16  C   UNL     1     -18.107  -7.019 -26.487  1.00  0.00     0.020 A 
ATOM     17  C   UNL     1     -17.641  -4.750 -25.702  1.00  0.00     0.029 A 
ATOM     18  C   UNL     1     -17.405  -6.125 -25.690  1.00  0.00     0.065 A 
ATOM     19  C   UNL     1     -17.561  -8.282 -26.168  1.00  0.00     0.143 A 
ATOM     20  N   UNL     1     -16.521  -6.894 -24.978  1.00  0.00    -0.278 N 
ATOM     21  N   UNL     1     -16.596  -8.211 -25.248  1.00  0.00    -0.183 NA
ATOM     22  H   UNL     1     -15.839  -6.582 -24.295  1.00  0.00     0.190 HD
ENDBRANCH   4  13
BRANCH  12  23
ATOM     23  N   UNL     1     -24.424  -2.926 -32.865  1.00  0.00    -0.368 N 
ATOM     24  H   UNL     1     -25.307  -3.285 -32.534  1.00  0.00     0.159 HD
ATOM     25  H   UNL     1     -24.337  -1.927 -32.999  1.00  0.00     0.159 HD
ENDBRANCH  12  23
ENDBRANCH   1   3
BRANCH   1  26
ATOM     26  C   UNL     1     -20.231  -6.298 -33.317  1.00  0.00     0.040 A 
ATOM     27  C   UNL     1     -20.064  -7.554 -32.725  1.00  0.00     0.040 A 
ATOM     28  C   UNL     1     -20.238  -6.227 -34.723  1.00  0.00     0.026 A 
ATOM     29  C   UNL     1     -19.962  -8.703 -33.516  1.00  0.00     0.042 A 
ATOM     30  C   UNL     1     -20.153  -7.379 -35.513  1.00  0.00     0.003 A 
ATOM     31  C   UNL     1     -20.025  -8.624 -34.909  1.00  0.00     0.014 A 
BRANCH  29  32
ATOM     32  C   UNL     1     -19.809 -10.015 -32.855  1.00  0.00     0.254 C 
ATOM     33  N   UNL     1     -18.565 -10.348 -32.332  1.00  0.00    -0.333 N 
ATOM     34  C   UNL     1     -18.392 -11.674 -31.750  1.00  0.00     0.151 C 
ATOM     35  C   UNL     1     -17.448  -9.413 -32.171  1.00  0.00     0.151 C 
ATOM     36  C   UNL     1     -16.918 -12.100 -31.656  1.00  0.00     0.135 C 
ATOM     37  C   UNL     1     -16.508  -9.784 -31.009  1.00  0.00     0.135 C 
ATOM     38  O   UNL     1     -16.057 -11.144 -31.019  1.00  0.00    -0.372 OA
ATOM     39  O   UNL     1     -20.785 -10.756 -32.809  1.00  0.00    -0.269 OA
ATOM     40  C   UNL     1     -16.329 -12.455 -33.020  1.00  0.00     0.040 C 
ATOM     41  C   UNL     1     -17.107  -9.461 -29.641  1.00  0.00     0.040 C 
ENDBRANCH  29  32
ENDBRANCH   1  26
TORSDOF 5
ENDMDL
MODEL 2
REMARK VINA RESULT:    -9.567      1.072      1.230
REMARK INTER + INTRA:         -13.605
REMARK INTER:                 -12.466
REMARK INTRA:                  -1.139
REMARK UNBOUND:                -1.520
REMARK SMILES C[C@@H]1CN(C(=O)c2cccc(Nc3nc(N)nc4ccc(-c5ccc6[nH]ncc6c5)cc34)c2)C[C@@H](C)O1
REMARK SMILES IDX 12 1 13 3 21 4 31 5 20 6 32 7 19 8 18 9 17 10 14 11 15 12
REMARK SMILES IDX 22 13 30 14 23 15 29 16 24 17 25 18 28 19 26 20 27 21 16 23
REMARK SMILES IDX 11 26 33 27 10 28 7 29 9 30 8 31 5 32 4 33 34 34 3 35 35 36
REMARK SMILES IDX 2 37 37 38 6 39 36 40 1 41
REMARK H PARENT 12 2 26 22 16 24 16 25
ROOT
ATOM      1  N   UNL     1     -20.058  -5.053 -32.390  1.00  0.00    -0.340 N 
ATOM      2  H   UNL     1     -19.298  -4.383 -32.421  1.00  0.00     0.168 HD
ENDROOT
BRANCH   1   3
ATOM      3  C   UNL     1     -21.177  -4.440 -31.758  1.00  0.00     0.143 A 
ATOM      4  C   UNL     1     -20.281  -4.696 -28.089  1.00  0.00    -0.017 A 
ATOM      5  C   UNL     1     -20.196  -4.852 -29.480  1.00  0.00     0.023 A 
ATOM      6  C   UNL     1     -21.392  -4.014 -27.584  1.00  0.00     0.011 A 
ATOM      7  C   UNL     1     -21.193  -4.339 -30.355  1.00  0.00     0.044 A 
ATOM      8  C   UNL     1     -22.379  -3.521 -28.444  1.00  0.00     0.030 A 
ATOM      9  C   UNL     1     -22.302  -3.678 -29.821  1.00  0.00     0.078 A 
ATOM     10  N   UNL     1     -23.289  -3.193 -30.575  1.00  0.00    -0.213 NA
ATOM     11  N   UNL     1     -22.184  -3.967 -32.512  1.00  0.00    -0.195 NA
ATOM     12  C   UNL     1     -23.204  -3.384 -31.890  1.00  0.00     0.222 A 
BRANCH   4  13
ATOM     13  C   UNL     1     -19.243  -5.238 -27.198  1.00  0.00    -0.018 A 
ATOM     14  C   UNL     1     -18.979  -6.623 -27.166  1.00  0.00     0.020 A 
ATOM     15  C   UNL     1     -18.502  -4.387 -26.359  1.00  0.00     0.011 A 
ATOM     16  C   UNL     1     -17.989  -7.125 -26.301  1.00  0.00     0.020 A 
ATOM     17  C   UNL     1     -17.512  -4.868 -25.490  1.00  0.00     0.029 A 
ATOM     18  C   UNL     1     -17.285  -6.244 -25.492  1.00  0.00     0.065 A 
ATOM     19  C   UNL     1     -17.453  -8.395 -25.993  1.00  0.00     0.143 A 
ATOM     20  N   UNL     1     -16.410  -7.026 -24.784  1.00  0.00    -0.278 N 
ATOM     21  N   UNL     1     -16.493  -8.340 -25.067  1.00  0.00    -0.183 NA
ATOM     22  H   UNL     1     -15.730  -6.726 -24.094  1.00  0.00     0.190 HD
ENDBRANCH   4  13
BRANCH  12  23
ATOM     23  N   UNL     1     -24.232  -2.905 -32.674  1.00  0.00    -0.368 N 
ATOM     24  H   UNL     1     -24.992  -3.568 -32.704  1.00  0.00     0.159 HD
ATOM     25  H   UNL     1     -24.445  -1.949 -32.422  1.00  0.00     0.159 HD
ENDBRANCH  12  23
ENDBRANCH   1   3
BRANCH   1  26
ATOM     26  C   UNL     1     -20.033  -5.904 -33.519  1.00  0.00     0.040 A 
ATOM     27  C   UNL     1     -20.260  -7.282 -33.445  1.00  0.00     0.040 A 
ATOM     28  C   UNL     1     -19.632  -5.367 -34.756  1.00  0.00     0.026 A 
ATOM     29  C   UNL     1     -20.141  -8.082 -34.586  1.00  0.00     0.042 A 
ATOM     30  C   UNL     1     -19.529  -6.166 -35.901  1.00  0.00     0.003 A 
ATOM     31  C   UNL     1     -19.794  -7.528 -35.820  1.00  0.00     0.014 A 
BRANCH  29  32
ATOM     32  C   UNL     1     -20.410  -9.531 -34.475  1.00  0.00     0.254 C 
ATOM     33  N   UNL     1     -19.432 -10.341 -33.911  1.00  0.00    -0.333 N 
ATOM     34  C   UNL     1     -19.663 -11.781 -33.873  1.00  0.00     0.151 C 
ATOM     35  C   UNL     1     -18.247  -9.852 -33.201  1.00  0.00     0.151 C 
ATOM     36  C   UNL     1     -18.371 -12.592 -33.693  1.00  0.00     0.135 C 
ATOM     37  C   UNL     1     -17.733 -10.831 -32.130  1.00  0.00     0.135 C 
ATOM     38  O   UNL     1     -17.550 -12.176 -32.591  1.00  0.00    -0.372 OA
ATOM     39  O   UNL     1     -21.481  -9.953 -34.897  1.00  0.00    -0.269 OA
ATOM     40  C   UNL     1     -17.516 -12.609 -34.959  1.00  0.00     0.040 C 
ATOM     41  C   UNL     1     -18.604 -10.841 -30.875  1.00  0.00     0.040 C 
ENDBRANCH  29  32
ENDBRANCH   1  26
TORSDOF 5
ENDMDL
MODEL 3
REMARK VINA RESULT:    -9.167      1.673      2.789
REMARK INTER + INTRA:         -13.099
REMARK INTER:                 -12.086
REMARK INTRA:                  -1.013
REMARK UNBOUND:                -1.520
REMARK SMILES C[C@@H]1CN(C(=O)c2cccc(Nc3nc(N)nc4ccc(-c5ccc6[nH]ncc6c5)cc34)c2)C[C@@H](C)O1
REMARK SMILES IDX 12 1 13 3 21 4 31 5 20 6 32 7 19 8 18 9 17 10 14 11 15 12
REMARK SMILES IDX 22 13 30 14 23 15 29 16 24 17 25 18 28 19 26 20 27 21 16 23
REMARK SMILES IDX 11 26 33 27 10 28 7 29 9 30 8 31 5 32 4 33 34 34 3 35 35 36
REMARK SMILES IDX 2 37 37 38 6 39 36 40 1 41
REMARK H PARENT 12 2 26 22 16 24 16 25
ROOT
ATOM      1  N   UNL     1     -20.076  -5.385 -32.474  1.00  0.00    -0.340 N 
ATOM      2  H   UNL     1     -19.345  -4.712 -32.679  1.00  0.00     0.168 HD
ENDROOT
BRANCH   1   3
ATOM      3  C   UNL     1     -21.169  -4.699 -31.873  1.00  0.00     0.143 A 
ATOM      4  C   UNL     1     -20.246  -4.757 -28.202  1.00  0.00    -0.017 A 
ATOM      5  C   UNL     1     -20.179  -5.001 -29.582  1.00  0.00     0.023 A 
ATOM      6  C   UNL     1     -21.330  -4.011 -27.731  1.00  0.00     0.011 A 
ATOM      7  C   UNL     1     -21.168  -4.511 -30.478  1.00  0.00     0.044 A 
ATOM      8  C   UNL     1     -22.309  -3.539 -28.612  1.00  0.00     0.030 A 
ATOM      9  C   UNL     1     -22.250  -3.783 -29.977  1.00  0.00     0.078 A 
ATOM     10  N   UNL     1     -23.229  -3.313 -30.753  1.00  0.00    -0.213 NA
ATOM     11  N   UNL     1     -22.167  -4.240 -32.647  1.00  0.00    -0.195 NA
ATOM     12  C   UNL     1     -23.162  -3.588 -32.054  1.00  0.00     0.222 A 
BRANCH   4  13
ATOM     13  C   UNL     1     -19.217  -5.277 -27.287  1.00  0.00    -0.018 A 
ATOM     14  C   UNL     1     -18.942  -6.659 -27.230  1.00  0.00     0.020 A 
ATOM     15  C   UNL     1     -18.496  -4.407 -26.450  1.00  0.00     0.011 A 
ATOM     16  C   UNL     1     -17.961  -7.139 -26.343  1.00  0.00     0.020 A 
ATOM     17  C   UNL     1     -17.515  -4.866 -25.559  1.00  0.00     0.029 A 
ATOM     18  C   UNL     1     -17.277  -6.241 -25.536  1.00  0.00     0.065 A 
ATOM     19  C   UNL     1     -17.419  -8.400 -26.008  1.00  0.00     0.143 A 
ATOM     20  N   UNL     1     -16.407  -7.004 -24.803  1.00  0.00    -0.278 N 
ATOM     21  N   UNL     1     -16.474  -8.323 -25.068  1.00  0.00    -0.183 NA
ATOM     22  H   UNL     1     -15.740  -6.688 -24.108  1.00  0.00     0.190 HD
ENDBRANCH   4  13
BRANCH  12  23
ATOM     23  N   UNL     1     -24.182  -3.125 -32.858  1.00  0.00    -0.368 N 
ATOM     24  H   UNL     1     -24.097  -3.501 -33.790  1.00  0.00     0.159 HD
ATOM     25  H   UNL     1     -25.070  -3.225 -32.385  1.00  0.00     0.159 HD
ENDBRANCH  12  23
ENDBRANCH   1   3
BRANCH   1  26
ATOM     26  C   UNL     1     -20.100  -6.418 -33.438  1.00  0.00     0.040 A 
ATOM     27  C   UNL     1     -19.814  -7.754 -33.138  1.00  0.00     0.040 A 
ATOM     28  C   UNL     1     -20.291  -6.073 -34.789  1.00  0.00     0.026 A 
ATOM     29  C   UNL     1     -19.775  -8.716 -34.152  1.00  0.00     0.042 A 
ATOM     30  C   UNL     1     -20.268  -7.039 -35.802  1.00  0.00     0.003 A 
ATOM     31  C   UNL     1     -20.019  -8.369 -35.482  1.00  0.00     0.014 A 
BRANCH  29  32
ATOM     32  C   UNL     1     -19.492 -10.121 -33.795  1.00  0.00     0.254 C 
ATOM     33  N   UNL     1     -20.566 -10.987 -33.624  1.00  0.00    -0.333 N 
ATOM     34  C   UNL     1     -20.292 -12.353 -33.194  1.00  0.00     0.151 C 
ATOM     35  C   UNL     1     -21.951 -10.685 -33.996  1.00  0.00     0.151 C 
ATOM     36  C   UNL     1     -21.519 -13.048 -32.584  1.00  0.00     0.135 C 
ATOM     37  C   UNL     1     -22.769 -11.937 -34.359  1.00  0.00     0.135 C 
ATOM     38  O   UNL     1     -22.703 -12.993 -33.393  1.00  0.00    -0.372 OA
ATOM     39  O   UNL     1     -18.320 -10.457 -33.654  1.00  0.00    -0.269 OA
ATOM     40  C   UNL     1     -21.853 -12.516 -31.191  1.00  0.00     0.040 C 
ATOM     41  C   UNL     1     -22.414 -12.493 -35.738  1.00  0.00     0.040 C 
ENDBRANCH  29  32
ENDBRANCH   1  26
TORSDOF 5
ENDMDL
MODEL 4
REMARK VINA RESULT:    -9.062      2.248      3.603
REMARK INTER + INTRA:         -12.966
REMARK INTER:                 -12.779
REMARK INTRA:                  -0.186
REMARK UNBOUND:                -1.520
REMARK SMILES C[C@@H]1CN(C(=O)c2cccc(Nc3nc(N)nc4ccc(-c5ccc6[nH]ncc6c5)cc34)c2)C[C@@H](C)O1
REMARK SMILES IDX 12 1 13 3 21 4 31 5 20 6 32 7 19 8 18 9 17 10 14 11 15 12
REMARK SMILES IDX 22 13 30 14 23 15 29 16 24 17 25 18 28 19 26 20 27 21 16 23
REMARK SMILES IDX 11 26 33 27 10 28 7 29 9 30 8 31 5 32 4 33 34 34 3 35 35 36
REMARK SMILES IDX 2 37 37 38 6 39 36 40 1 41
REMARK H PARENT 12 2 26 22 16 24 16 25
ROOT
ATOM      1  N   UNL     1     -20.063  -5.155 -32.471  1.00  0.00    -0.340 N 
ATOM      2  H   UNL     1     -19.268  -4.533 -32.371  1.00  0.00     0.168 HD
ENDROOT
BRANCH   1   3
ATOM      3  C   UNL     1     -21.198  -4.542 -31.869  1.00  0.00     0.143 A 
ATOM      4  C   UNL     1     -20.329  -4.667 -28.186  1.00  0.00    -0.017 A 
ATOM      5  C   UNL     1     -20.229  -4.865 -29.571  1.00  0.00     0.023 A 
ATOM      6  C   UNL     1     -21.455  -3.989 -27.712  1.00  0.00     0.011 A 
ATOM      7  C   UNL     1     -21.227  -4.398 -30.469  1.00  0.00     0.044 A 
ATOM      8  C   UNL     1     -22.444  -3.540 -28.595  1.00  0.00     0.030 A 
ATOM      9  C   UNL     1     -22.352  -3.739 -29.965  1.00  0.00     0.078 A 
ATOM     10  N   UNL     1     -23.341  -3.295 -30.743  1.00  0.00    -0.213 NA
ATOM     11  N   UNL     1     -22.205  -4.110 -32.645  1.00  0.00    -0.195 NA
ATOM     12  C   UNL     1     -23.241  -3.526 -32.050  1.00  0.00     0.222 A 
BRANCH   4  13
ATOM     13  C   UNL     1     -19.289  -5.163 -27.270  1.00  0.00    -0.018 A 
ATOM     14  C   UNL     1     -19.049  -6.546 -27.141  1.00  0.00     0.020 A 
ATOM     15  C   UNL     1     -18.522  -4.268 -26.504  1.00  0.00     0.011 A 
ATOM     16  C   UNL     1     -18.058  -7.003 -26.254  1.00  0.00     0.020 A 
ATOM     17  C   UNL     1     -17.529  -4.703 -25.614  1.00  0.00     0.029 A 
ATOM     18  C   UNL     1     -17.327  -6.079 -25.518  1.00  0.00     0.065 A 
ATOM     19  C   UNL     1     -17.541  -8.257 -25.860  1.00  0.00     0.143 A 
ATOM     20  N   UNL     1     -16.458  -6.825 -24.765  1.00  0.00    -0.278 N 
ATOM     21  N   UNL     1     -16.568  -8.153 -24.952  1.00  0.00    -0.183 NA
ATOM     22  H   UNL     1     -15.763  -6.488 -24.108  1.00  0.00     0.190 HD
ENDBRANCH   4  13
BRANCH  12  23
ATOM     23  N   UNL     1     -24.270  -3.091 -32.856  1.00  0.00    -0.368 N 
ATOM     24  H   UNL     1     -25.159  -3.410 -32.501  1.00  0.00     0.159 HD
ATOM     25  H   UNL     1     -24.165  -2.104 -33.054  1.00  0.00     0.159 HD
ENDBRANCH  12  23
ENDBRANCH   1   3
BRANCH   1  26
ATOM     26  C   UNL     1     -19.987  -5.886 -33.680  1.00  0.00     0.040 A 
ATOM     27  C   UNL     1     -20.091  -7.279 -33.741  1.00  0.00     0.040 A 
ATOM     28  C   UNL     1     -19.660  -5.196 -34.863  1.00  0.00     0.026 A 
ATOM     29  C   UNL     1     -19.925  -7.950 -34.957  1.00  0.00     0.042 A 
ATOM     30  C   UNL     1     -19.511  -5.867 -36.082  1.00  0.00     0.003 A 
ATOM     31  C   UNL     1     -19.655  -7.249 -36.134  1.00  0.00     0.014 A 
BRANCH  29  32
ATOM     32  C   UNL     1     -20.064  -9.420 -34.987  1.00  0.00     0.254 C 
ATOM     33  N   UNL     1     -20.634 -10.005 -36.112  1.00  0.00    -0.333 N 
ATOM     34  C   UNL     1     -20.844 -11.448 -36.110  1.00  0.00     0.151 C 
ATOM     35  C   UNL     1     -20.900  -9.308 -37.373  1.00  0.00     0.151 C 
ATOM     36  C   UNL     1     -21.885 -11.904 -37.145  1.00  0.00     0.135 C 
ATOM     37  C   UNL     1     -20.861 -10.236 -38.601  1.00  0.00     0.135 C 
ATOM     38  O   UNL     1     -21.659 -11.421 -38.477  1.00  0.00    -0.372 OA
ATOM     39  O   UNL     1     -19.679 -10.058 -34.013  1.00  0.00    -0.269 OA
ATOM     40  C   UNL     1     -23.311 -11.544 -36.730  1.00  0.00     0.040 C 
ATOM     41  C   UNL     1     -19.438 -10.627 -38.999  1.00  0.00     0.040 C 
ENDBRANCH  29  32
ENDBRANCH   1  26
TORSDOF 5
ENDMDL
MODEL 5
REMARK VINA RESULT:    -9.015      1.908      6.540
REMARK INTER + INTRA:         -12.906
REMARK INTER:                 -11.521
REMARK INTRA:                  -1.386
REMARK UNBOUND:                -1.520
REMARK SMILES C[C@@H]1CN(C(=O)c2cccc(Nc3nc(N)nc4ccc(-c5ccc6[nH]ncc6c5)cc34)c2)C[C@@H](C)O1
REMARK SMILES IDX 12 1 13 3 21 4 31 5 20 6 32 7 19 8 18 9 17 10 14 11 15 12
REMARK SMILES IDX 22 13 30 14 23 15 29 16 24 17 25 18 28 19 26 20 27 21 16 23
REMARK SMILES IDX 11 26 33 27 10 28 7 29 9 30 8 31 5 32 4 33 34 34 3 35 35 36
REMARK SMILES IDX 2 37 37 38 6 39 36 40 1 41
REMARK H PARENT 12 2 26 22 16 24 16 25
ROOT
ATOM      1  N   UNL     1     -18.875  -8.816 -28.588  1.00  0.00    -0.340 N 
ATOM      2  H   UNL     1     -18.945  -9.709 -28.113  1.00  0.00     0.168 HD
ENDROOT
BRANCH   1   3
ATOM      3  C   UNL     1     -18.513  -7.822 -27.634  1.00  0.00     0.143 A 
ATOM      4  C   UNL     1     -20.405  -4.784 -28.868  1.00  0.00    -0.017 A 
ATOM      5  C   UNL     1     -19.900  -6.092 -28.818  1.00  0.00     0.023 A 
ATOM      6  C   UNL     1     -20.040  -3.913 -27.838  1.00  0.00     0.011 A 
ATOM      7  C   UNL     1     -19.051  -6.528 -27.765  1.00  0.00     0.044 A 
ATOM      8  C   UNL     1     -19.194  -4.339 -26.808  1.00  0.00     0.030 A 
ATOM      9  C   UNL     1     -18.687  -5.631 -26.758  1.00  0.00     0.078 A 
ATOM     10  N   UNL     1     -17.874  -5.960 -25.753  1.00  0.00    -0.213 NA
ATOM     11  N   UNL     1     -17.680  -8.143 -26.630  1.00  0.00    -0.195 NA
ATOM     12  C   UNL     1     -17.379  -7.196 -25.746  1.00  0.00     0.222 A 
BRANCH   4  13
ATOM     13  C   UNL     1     -21.279  -4.347 -29.969  1.00  0.00    -0.018 A 
ATOM     14  C   UNL     1     -22.161  -3.261 -29.795  1.00  0.00     0.020 A 
ATOM     15  C   UNL     1     -21.255  -5.009 -31.209  1.00  0.00     0.011 A 
ATOM     16  C   UNL     1     -22.995  -2.863 -30.855  1.00  0.00     0.020 A 
ATOM     17  C   UNL     1     -22.079  -4.627 -32.278  1.00  0.00     0.029 A 
ATOM     18  C   UNL     1     -22.936  -3.548 -32.060  1.00  0.00     0.065 A 
ATOM     19  C   UNL     1     -23.972  -1.864 -31.063  1.00  0.00     0.143 A 
ATOM     20  N   UNL     1     -23.850  -2.930 -32.872  1.00  0.00    -0.278 N 
ATOM     21  N   UNL     1     -24.497  -1.903 -32.290  1.00  0.00    -0.183 NA
ATOM     22  H   UNL     1     -24.078  -3.158 -33.834  1.00  0.00     0.190 HD
ENDBRANCH   4  13
BRANCH  12  23
ATOM     23  N   UNL     1     -16.521  -7.535 -24.723  1.00  0.00    -0.368 N 
ATOM     24  H   UNL     1     -16.625  -6.898 -23.948  1.00  0.00     0.159 HD
ATOM     25  H   UNL     1     -16.579  -8.527 -24.534  1.00  0.00     0.159 HD
ENDBRANCH  12  23
ENDBRANCH   1   3
BRANCH   1  26
ATOM     26  C   UNL     1     -18.415  -8.979 -29.915  1.00  0.00     0.040 A 
ATOM     27  C   UNL     1     -19.159  -8.599 -31.036  1.00  0.00     0.040 A 
ATOM     28  C   UNL     1     -17.210  -9.675 -30.128  1.00  0.00     0.026 A 
ATOM     29  C   UNL     1     -18.684  -8.862 -32.325  1.00  0.00     0.042 A 
ATOM     30  C   UNL     1     -16.727  -9.923 -31.418  1.00  0.00     0.003 A 
ATOM     31  C   UNL     1     -17.461  -9.506 -32.523  1.00  0.00     0.014 A 
BRANCH  29  32
ATOM     32  C   UNL     1     -19.486  -8.427 -33.486  1.00  0.00     0.254 C 
ATOM     33  N   UNL     1     -20.103  -9.400 -34.264  1.00  0.00    -0.333 N 
ATOM     34  C   UNL     1     -20.830  -8.977 -35.455  1.00  0.00     0.151 C 
ATOM     35  C   UNL     1     -20.219 -10.814 -33.896  1.00  0.00     0.151 C 
ATOM     36  C   UNL     1     -21.040 -10.116 -36.465  1.00  0.00     0.135 C 
ATOM     37  C   UNL     1     -21.457 -11.500 -34.500  1.00  0.00     0.135 C 
ATOM     38  O   UNL     1     -21.614 -11.310 -35.912  1.00  0.00    -0.372 OA
ATOM     39  O   UNL     1     -19.563  -7.225 -33.718  1.00  0.00    -0.269 OA
ATOM     40  C   UNL     1     -19.752 -10.487 -37.198  1.00  0.00     0.040 C 
ATOM     41  C   UNL     1     -22.753 -11.106 -33.792  1.00  0.00     0.040 C 
ENDBRANCH  29  32
ENDBRANCH   1  26
TORSDOF 5
ENDMDL
MODEL 6
REMARK VINA RESULT:    -8.974      1.338      2.062
REMARK INTER + INTRA:         -12.854
REMARK INTER:                 -11.465
REMARK INTRA:                  -1.389
REMARK UNBOUND:                -1.520
REMARK SMILES C[C@@H]1CN(C(=O)c2cccc(Nc3nc(N)nc4ccc(-c5ccc6[nH]ncc6c5)cc34)c2)C[C@@H](C)O1
REMARK SMILES IDX 12 1 13 3 21 4 31 5 20 6 32 7 19 8 18 9 17 10 14 11 15 12
REMARK SMILES IDX 22 13 30 14 23 15 29 16 24 17 25 18 28 19 26 20 27 21 16 23
REMARK SMILES IDX 11 26 33 27 10 28 7 29 9 30 8 31 5 32 4 33 34 34 3 35 35 36
REMARK SMILES IDX 2 37 37 38 6 39 36 40 1 41
REMARK H PARENT 12 2 26 22 16 24 16 25
ROOT
ATOM      1  N   UNL     1     -20.047  -5.343 -32.498  1.00  0.00    -0.340 N 
ATOM      2  H   UNL     1     -19.465  -4.649 -32.954  1.00  0.00     0.168 HD
ENDROOT
BRANCH   1   3
ATOM      3  C   UNL     1     -21.156  -4.682 -31.898  1.00  0.00     0.143 A 
ATOM      4  C   UNL     1     -20.266  -4.780 -28.220  1.00  0.00    -0.017 A 
ATOM      5  C   UNL     1     -20.183  -5.003 -29.602  1.00  0.00     0.023 A 
ATOM      6  C   UNL     1     -21.365  -4.057 -27.748  1.00  0.00     0.011 A 
ATOM      7  C   UNL     1     -21.171  -4.515 -30.501  1.00  0.00     0.044 A 
ATOM      8  C   UNL     1     -22.343  -3.587 -28.632  1.00  0.00     0.030 A 
ATOM      9  C   UNL     1     -22.268  -3.810 -29.999  1.00  0.00     0.078 A 
ATOM     10  N   UNL     1     -23.247  -3.344 -30.777  1.00  0.00    -0.213 NA
ATOM     11  N   UNL     1     -22.154  -4.227 -32.674  1.00  0.00    -0.195 NA
ATOM     12  C   UNL     1     -23.164  -3.598 -32.082  1.00  0.00     0.222 A 
BRANCH   4  13
ATOM     13  C   UNL     1     -19.238  -5.298 -27.303  1.00  0.00    -0.018 A 
ATOM     14  C   UNL     1     -18.951  -6.677 -27.254  1.00  0.00     0.020 A 
ATOM     15  C   UNL     1     -18.529  -4.428 -26.455  1.00  0.00     0.011 A 
ATOM     16  C   UNL     1     -17.971  -7.156 -26.366  1.00  0.00     0.020 A 
ATOM     17  C   UNL     1     -17.550  -4.885 -25.562  1.00  0.00     0.029 A 
ATOM     18  C   UNL     1     -17.299  -6.258 -25.548  1.00  0.00     0.065 A 
ATOM     19  C   UNL     1     -17.420  -8.415 -26.037  1.00  0.00     0.143 A 
ATOM     20  N   UNL     1     -16.426  -7.019 -24.816  1.00  0.00    -0.278 N 
ATOM     21  N   UNL     1     -16.481  -8.336 -25.091  1.00  0.00    -0.183 NA
ATOM     22  H   UNL     1     -15.766  -6.702 -24.114  1.00  0.00     0.190 HD
ENDBRANCH   4  13
BRANCH  12  23
ATOM     23  N   UNL     1     -24.183  -3.139 -32.888  1.00  0.00    -0.368 N 
ATOM     24  H   UNL     1     -24.310  -3.749 -33.681  1.00  0.00     0.159 HD
ATOM     25  H   UNL     1     -24.995  -2.913 -32.329  1.00  0.00     0.159 HD
ENDBRANCH  12  23
ENDBRANCH   1   3
BRANCH   1  26
ATOM     26  C   UNL     1     -20.021  -6.570 -33.201  1.00  0.00     0.040 A 
ATOM     27  C   UNL     1     -19.479  -7.745 -32.671  1.00  0.00     0.040 A 
ATOM     28  C   UNL     1     -20.438  -6.583 -34.545  1.00  0.00     0.026 A 
ATOM     29  C   UNL     1     -19.409  -8.906 -33.447  1.00  0.00     0.042 A 
ATOM     30  C   UNL     1     -20.383  -7.750 -35.316  1.00  0.00     0.003 A 
ATOM     31  C   UNL     1     -19.876  -8.921 -34.763  1.00  0.00     0.014 A 
BRANCH  29  32
ATOM     32  C   UNL     1     -18.851 -10.135 -32.847  1.00  0.00     0.254 C 
ATOM     33  N   UNL     1     -19.500 -10.685 -31.748  1.00  0.00    -0.333 N 
ATOM     34  C   UNL     1     -18.906 -11.853 -31.107  1.00  0.00     0.151 C 
ATOM     35  C   UNL     1     -20.826 -10.284 -31.273  1.00  0.00     0.151 C 
ATOM     36  C   UNL     1     -19.409 -12.069 -29.671  1.00  0.00     0.135 C 
ATOM     37  C   UNL     1     -21.585 -11.417 -30.559  1.00  0.00     0.135 C 
ATOM     38  O   UNL     1     -20.837 -12.079 -29.531  1.00  0.00    -0.372 OA
ATOM     39  O   UNL     1     -17.832 -10.608 -33.341  1.00  0.00    -0.269 OA
ATOM     40  C   UNL     1     -18.829 -11.048 -28.694  1.00  0.00     0.040 C 
ATOM     41  C   UNL     1     -22.138 -12.458 -31.530  1.00  0.00     0.040 C 
ENDBRANCH  29  32
ENDBRANCH   1  26
TORSDOF 5
ENDMDL
MODEL 7
REMARK VINA RESULT:    -8.955      2.340      3.809
REMARK INTER + INTRA:         -12.830
REMARK INTER:                 -12.253
REMARK INTRA:                  -0.577
REMARK UNBOUND:                -1.520
REMARK SMILES C[C@@H]1CN(C(=O)c2cccc(Nc3nc(N)nc4ccc(-c5ccc6[nH]ncc6c5)cc34)c2)C[C@@H](C)O1
REMARK SMILES IDX 12 1 13 3 21 4 31 5 20 6 32 7 19 8 18 9 17 10 14 11 15 12
REMARK SMILES IDX 22 13 30 14 23 15 29 16 24 17 25 18 28 19 26 20 27 21 16 23
REMARK SMILES IDX 11 26 33 27 10 28 7 29 9 30 8 31 5 32 4 33 34 34 3 35 35 36
REMARK SMILES IDX 2 37 37 38 6 39 36 40 1 41
REMARK H PARENT 12 2 26 22 16 24 16 25
ROOT
ATOM      1  N   UNL     1     -20.088  -5.463 -32.461  1.00  0.00    -0.340 N 
ATOM      2  H   UNL     1     -19.599  -4.838 -33.093  1.00  0.00     0.168 HD
ENDROOT
BRANCH   1   3
ATOM      3  C   UNL     1     -21.169  -4.752 -31.866  1.00  0.00     0.143 A 
ATOM      4  C   UNL     1     -20.231  -4.764 -28.199  1.00  0.00    -0.017 A 
ATOM      5  C   UNL     1     -20.174  -5.031 -29.575  1.00  0.00     0.023 A 
ATOM      6  C   UNL     1     -21.302  -3.995 -27.736  1.00  0.00     0.011 A 
ATOM      7  C   UNL     1     -21.159  -4.542 -30.475  1.00  0.00     0.044 A 
ATOM      8  C   UNL     1     -22.278  -3.524 -28.620  1.00  0.00     0.030 A 
ATOM      9  C   UNL     1     -22.229  -3.790 -29.981  1.00  0.00     0.078 A 
ATOM     10  N   UNL     1     -23.204  -3.319 -30.761  1.00  0.00    -0.213 NA
ATOM     11  N   UNL     1     -22.164  -4.291 -32.644  1.00  0.00    -0.195 NA
ATOM     12  C   UNL     1     -23.147  -3.615 -32.058  1.00  0.00     0.222 A 
BRANCH   4  13
ATOM     13  C   UNL     1     -19.205  -5.284 -27.280  1.00  0.00    -0.018 A 
ATOM     14  C   UNL     1     -18.916  -6.663 -27.236  1.00  0.00     0.020 A 
ATOM     15  C   UNL     1     -18.501  -4.416 -26.427  1.00  0.00     0.011 A 
ATOM     16  C   UNL     1     -17.939  -7.144 -26.345  1.00  0.00     0.020 A 
ATOM     17  C   UNL     1     -17.524  -4.875 -25.531  1.00  0.00     0.029 A 
ATOM     18  C   UNL     1     -17.272  -6.247 -25.521  1.00  0.00     0.065 A 
ATOM     19  C   UNL     1     -17.388  -8.402 -26.018  1.00  0.00     0.143 A 
ATOM     20  N   UNL     1     -16.401  -7.010 -24.789  1.00  0.00    -0.278 N 
ATOM     21  N   UNL     1     -16.452  -8.326 -25.069  1.00  0.00    -0.183 NA
ATOM     22  H   UNL     1     -15.744  -6.695 -24.084  1.00  0.00     0.190 HD
ENDBRANCH   4  13
BRANCH  12  23
ATOM     23  N   UNL     1     -24.164  -3.151 -32.864  1.00  0.00    -0.368 N 
ATOM     24  H   UNL     1     -24.304  -3.770 -33.649  1.00  0.00     0.159 HD
ATOM     25  H   UNL     1     -24.969  -2.906 -32.303  1.00  0.00     0.159 HD
ENDBRANCH  12  23
ENDBRANCH   1   3
BRANCH   1  26
ATOM     26  C   UNL     1     -20.058  -6.794 -32.936  1.00  0.00     0.040 A 
ATOM     27  C   UNL     1     -20.267  -7.135 -34.275  1.00  0.00     0.040 A 
ATOM     28  C   UNL     1     -19.943  -7.839 -31.999  1.00  0.00     0.026 A 
ATOM     29  C   UNL     1     -20.306  -8.477 -34.668  1.00  0.00     0.042 A 
ATOM     30  C   UNL     1     -19.965  -9.181 -32.395  1.00  0.00     0.003 A 
ATOM     31  C   UNL     1     -20.137  -9.504 -33.737  1.00  0.00     0.014 A 
BRANCH  29  32
ATOM     32  C   UNL     1     -20.507  -8.799 -36.095  1.00  0.00     0.254 C 
ATOM     33  N   UNL     1     -21.219  -9.949 -36.418  1.00  0.00    -0.333 N 
ATOM     34  C   UNL     1     -21.351 -10.311 -37.824  1.00  0.00     0.151 C 
ATOM     35  C   UNL     1     -21.991 -10.750 -35.463  1.00  0.00     0.151 C 
ATOM     36  C   UNL     1     -21.710 -11.790 -38.033  1.00  0.00     0.135 C 
ATOM     37  C   UNL     1     -23.178 -11.487 -36.108  1.00  0.00     0.135 C 
ATOM     38  O   UNL     1     -22.844 -12.244 -37.279  1.00  0.00    -0.372 OA
ATOM     39  O   UNL     1     -20.027  -8.042 -36.933  1.00  0.00    -0.269 OA
ATOM     40  C   UNL     1     -20.531 -12.718 -37.748  1.00  0.00     0.040 C 
ATOM     41  C   UNL     1     -24.347 -10.557 -36.426  1.00  0.00     0.040 C 
ENDBRANCH  29  32
ENDBRANCH   1  26
TORSDOF 5
ENDMDL
MODEL 8
REMARK VINA RESULT:    -8.916      3.056      6.452
REMARK INTER + INTRA:         -12.782
REMARK INTER:                 -10.818
REMARK INTRA:                  -1.964
REMARK UNBOUND:                -1.520
REMARK SMILES C[C@@H]1CN(C(=O)c2cccc(Nc3nc(N)nc4ccc(-c5ccc6[nH]ncc6c5)cc34)c2)C[C@@H](C)O1
REMARK SMILES IDX 12 1 13 3 21 4 31 5 20 6 32 7 19 8 18 9 17 10 14 11 15 12
REMARK SMILES IDX 22 13 30 14 23 15 29 16 24 17 25 18 28 19 26 20 27 21 16 23
REMARK SMILES IDX 11 26 33 27 10 28 7 29 9 30 8 31 5 32 4 33 34 34 3 35 35 36
REMARK SMILES IDX 2 37 37 38 6 39 36 40 1 41
REMARK H PARENT 12 2 26 22 16 24 16 25
ROOT
ATOM      1  N   UNL     1     -20.057  -6.213 -32.842  1.00  0.00    -0.340 N 
ATOM      2  H   UNL     1     -19.112  -5.884 -32.675  1.00  0.00     0.168 HD
ENDROOT
BRANCH   1   3
ATOM      3  C   UNL     1     -20.073  -7.631 -32.716  1.00  0.00     0.143 A 
ATOM      4  C   UNL     1     -19.122  -8.133 -29.086  1.00  0.00    -0.017 A 
ATOM      5  C   UNL     1     -19.392  -7.485 -30.300  1.00  0.00     0.023 A 
ATOM      6  C   UNL     1     -19.238  -9.526 -29.059  1.00  0.00     0.011 A 
ATOM      7  C   UNL     1     -19.773  -8.204 -31.466  1.00  0.00     0.044 A 
ATOM      8  C   UNL     1     -19.601 -10.235 -30.210  1.00  0.00     0.030 A 
ATOM      9  C   UNL     1     -19.863  -9.597 -31.415  1.00  0.00     0.078 A 
ATOM     10  N   UNL     1     -20.189 -10.341 -32.473  1.00  0.00    -0.213 NA
ATOM     11  N   UNL     1     -20.382  -8.386 -33.783  1.00  0.00    -0.195 NA
ATOM     12  C   UNL     1     -20.406  -9.706 -33.624  1.00  0.00     0.222 A 
BRANCH   4  13
ATOM     13  C   UNL     1     -18.724  -7.374 -27.889  1.00  0.00    -0.018 A 
ATOM     14  C   UNL     1     -19.105  -6.025 -27.738  1.00  0.00     0.020 A 
ATOM     15  C   UNL     1     -17.952  -7.977 -26.881  1.00  0.00     0.011 A 
ATOM     16  C   UNL     1     -18.708  -5.311 -26.593  1.00  0.00     0.020 A 
ATOM     17  C   UNL     1     -17.546  -7.283 -25.732  1.00  0.00     0.029 A 
ATOM     18  C   UNL     1     -17.945  -5.950 -25.626  1.00  0.00     0.065 A 
ATOM     19  C   UNL     1     -18.883  -4.000 -26.097  1.00  0.00     0.143 A 
ATOM     20  N   UNL     1     -17.727  -5.007 -24.656  1.00  0.00    -0.278 N 
ATOM     21  N   UNL     1     -18.285  -3.810 -24.918  1.00  0.00    -0.183 NA
ATOM     22  H   UNL     1     -17.210  -5.116 -23.791  1.00  0.00     0.190 HD
ENDBRANCH   4  13
BRANCH  12  23
ATOM     23  N   UNL     1     -20.721 -10.470 -34.726  1.00  0.00    -0.368 N 
ATOM     24  H   UNL     1     -21.132  -9.899 -35.448  1.00  0.00     0.159 HD
ATOM     25  H   UNL     1     -19.938 -11.060 -34.976  1.00  0.00     0.159 HD
ENDBRANCH  12  23
ENDBRANCH   1   3
BRANCH   1  26
ATOM     26  C   UNL     1     -21.011  -5.272 -32.390  1.00  0.00     0.040 A 
ATOM     27  C   UNL     1     -21.223  -4.985 -31.038  1.00  0.00     0.040 A 
ATOM     28  C   UNL     1     -21.881  -4.691 -33.332  1.00  0.00     0.026 A 
ATOM     29  C   UNL     1     -22.238  -4.105 -30.650  1.00  0.00     0.042 A 
ATOM     30  C   UNL     1     -22.885  -3.797 -32.945  1.00  0.00     0.003 A 
ATOM     31  C   UNL     1     -23.060  -3.493 -31.599  1.00  0.00     0.014 A 
BRANCH  29  32
ATOM     32  C   UNL     1     -22.419  -3.808 -29.215  1.00  0.00     0.254 C 
ATOM     33  N   UNL     1     -23.192  -4.678 -28.454  1.00  0.00    -0.333 N 
ATOM     34  C   UNL     1     -23.436  -4.344 -27.056  1.00  0.00     0.151 C 
ATOM     35  C   UNL     1     -23.654  -5.995 -28.901  1.00  0.00     0.151 C 
ATOM     36  C   UNL     1     -24.653  -5.076 -26.468  1.00  0.00     0.135 C 
ATOM     37  C   UNL     1     -23.854  -6.993 -27.747  1.00  0.00     0.135 C 
ATOM     38  O   UNL     1     -24.649  -6.498 -26.662  1.00  0.00    -0.372 OA
ATOM     39  O   UNL     1     -21.887  -2.800 -28.761  1.00  0.00    -0.269 OA
ATOM     40  C   UNL     1     -25.974  -4.515 -26.991  1.00  0.00     0.040 C 
ATOM     41  C   UNL     1     -22.533  -7.531 -27.199  1.00  0.00     0.040 C 
ENDBRANCH  29  32
ENDBRANCH   1  26
TORSDOF 5
ENDMDL
MODEL 9
REMARK VINA RESULT:    -8.796      2.768      8.919
REMARK INTER + INTRA:         -12.630
REMARK INTER:                 -10.778
REMARK INTRA:                  -1.852
REMARK UNBOUND:                -1.520
REMARK SMILES C[C@@H]1CN(C(=O)c2cccc(Nc3nc(N)nc4ccc(-c5ccc6[nH]ncc6c5)cc34)c2)C[C@@H](C)O1
REMARK SMILES IDX 12 1 13 3 21 4 31 5 20 6 32 7 19 8 18 9 17 10 14 11 15 12
REMARK SMILES IDX 22 13 30 14 23 15 29 16 24 17 25 18 28 19 26 20 27 21 16 23
REMARK SMILES IDX 11 26 33 27 10 28 7 29 9 30 8 31 5 32 4 33 34 34 3 35 35 36
REMARK SMILES IDX 2 37 37 38 6 39 36 40 1 41
REMARK H PARENT 12 2 26 22 16 24 16 25
ROOT
ATOM      1  N   UNL     1     -17.073  -9.186 -29.233  1.00  0.00    -0.340 N 
ATOM      2  H   UNL     1     -16.101  -9.073 -28.968  1.00  0.00     0.168 HD
ENDROOT
BRANCH   1   3
ATOM      3  C   UNL     1     -17.243 -10.484 -29.793  1.00  0.00     0.143 A 
ATOM      4  C   UNL     1     -18.762  -9.716 -33.175  1.00  0.00    -0.017 A 
ATOM      5  C   UNL     1     -18.245  -9.516 -31.887  1.00  0.00     0.023 A 
ATOM      6  C   UNL     1     -18.816 -11.029 -33.651  1.00  0.00     0.011 A 
ATOM      7  C   UNL     1     -17.787 -10.599 -31.086  1.00  0.00     0.044 A 
ATOM      8  C   UNL     1     -18.377 -12.095 -32.859  1.00  0.00     0.030 A 
ATOM      9  C   UNL     1     -17.869 -11.903 -31.581  1.00  0.00     0.078 A 
ATOM     10  N   UNL     1     -17.484 -12.970 -30.880  1.00  0.00    -0.213 NA
ATOM     11  N   UNL     1     -16.874 -11.564 -29.084  1.00  0.00    -0.195 NA
ATOM     12  C   UNL     1     -17.029 -12.759 -29.646  1.00  0.00     0.222 A 
BRANCH   4  13
ATOM     13  C   UNL     1     -19.237  -8.585 -33.988  1.00  0.00    -0.018 A 
ATOM     14  C   UNL     1     -18.958  -7.258 -33.601  1.00  0.00     0.020 A 
ATOM     15  C   UNL     1     -19.983  -8.806 -35.159  1.00  0.00     0.011 A 
ATOM     16  C   UNL     1     -19.427  -6.188 -34.384  1.00  0.00     0.020 A 
ATOM     17  C   UNL     1     -20.460  -7.754 -35.953  1.00  0.00     0.029 A 
ATOM     18  C   UNL     1     -20.161  -6.458 -35.531  1.00  0.00     0.065 A 
ATOM     19  C   UNL     1     -19.357  -4.778 -34.332  1.00  0.00     0.143 A 
ATOM     20  N   UNL     1     -20.464  -5.232 -36.063  1.00  0.00    -0.278 N 
ATOM     21  N   UNL     1     -19.990  -4.192 -35.351  1.00  0.00    -0.183 NA
ATOM     22  H   UNL     1     -20.989  -5.036 -36.907  1.00  0.00     0.190 HD
ENDBRANCH   4  13
BRANCH  12  23
ATOM     23  N   UNL     1     -16.650 -13.859 -28.908  1.00  0.00    -0.368 N 
ATOM     24  H   UNL     1     -16.912 -13.743 -27.940  1.00  0.00     0.159 HD
ATOM     25  H   UNL     1     -16.934 -14.708 -29.378  1.00  0.00     0.159 HD
ENDBRANCH  12  23
ENDBRANCH   1   3
BRANCH   1  26
ATOM     26  C   UNL     1     -17.926  -8.484 -28.351  1.00  0.00     0.040 A 
ATOM     27  C   UNL     1     -18.509  -7.252 -28.666  1.00  0.00     0.040 A 
ATOM     28  C   UNL     1     -18.095  -8.977 -27.043  1.00  0.00     0.026 A 
ATOM     29  C   UNL     1     -19.277  -6.568 -27.719  1.00  0.00     0.042 A 
ATOM     30  C   UNL     1     -18.878  -8.300 -26.102  1.00  0.00     0.003 A 
ATOM     31  C   UNL     1     -19.482  -7.094 -26.442  1.00  0.00     0.014 A 
BRANCH  29  32
ATOM     32  C   UNL     1     -19.896  -5.280 -28.095  1.00  0.00     0.254 C 
ATOM     33  N   UNL     1     -21.088  -5.305 -28.809  1.00  0.00    -0.333 N 
ATOM     34  C   UNL     1     -21.658  -4.036 -29.249  1.00  0.00     0.151 C 
ATOM     35  C   UNL     1     -21.911  -6.499 -29.022  1.00  0.00     0.151 C 
ATOM     36  C   UNL     1     -22.662  -4.197 -30.400  1.00  0.00     0.135 C 
ATOM     37  C   UNL     1     -23.407  -6.183 -29.195  1.00  0.00     0.135 C 
ATOM     38  O   UNL     1     -23.693  -5.169 -30.167  1.00  0.00    -0.372 OA
ATOM     39  O   UNL     1     -19.321  -4.246 -27.769  1.00  0.00    -0.269 OA
ATOM     40  C   UNL     1     -21.976  -4.522 -31.726  1.00  0.00     0.040 C 
ATOM     41  C   UNL     1     -24.090  -5.824 -27.876  1.00  0.00     0.040 C 
ENDBRANCH  29  32
ENDBRANCH   1  26
TORSDOF 5
ENDMDL
MODEL 10
REMARK VINA RESULT:    -8.776      2.991      6.519
REMARK INTER + INTRA:         -12.605
REMARK INTER:                 -10.361
REMARK INTRA:                  -2.244
REMARK UNBOUND:                -1.520
REMARK SMILES C[C@@H]1CN(C(=O)c2cccc(Nc3nc(N)nc4ccc(-c5ccc6[nH]ncc6c5)cc34)c2)C[C@@H](C)O1
REMARK SMILES IDX 12 1 13 3 21 4 31 5 20 6 32 7 19 8 18 9 17 10 14 11 15 12
REMARK SMILES IDX 22 13 30 14 23 15 29 16 24 17 25 18 28 19 26 20 27 21 16 23
REMARK SMILES IDX 11 26 33 27 10 28 7 29 9 30 8 31 5 32 4 33 34 34 3 35 35 36
REMARK SMILES IDX 2 37 37 38 6 39 36 40 1 41
REMARK H PARENT 12 2 26 22 16 24 16 25
ROOT
ATOM      1  N   UNL     1     -20.108  -5.366 -33.071  1.00  0.00    -0.340 N 
ATOM      2  H   UNL     1     -19.231  -5.253 -32.574  1.00  0.00     0.168 HD
ENDROOT
BRANCH   1   3
ATOM      3  C   UNL     1     -20.109  -6.640 -33.706  1.00  0.00     0.143 A 
ATOM      4  C   UNL     1     -19.549  -8.998 -30.799  1.00  0.00    -0.017 A 
ATOM      5  C   UNL     1     -19.698  -7.802 -31.515  1.00  0.00     0.023 A 
ATOM      6  C   UNL     1     -19.638 -10.194 -31.515  1.00  0.00     0.011 A 
ATOM      7  C   UNL     1     -19.935  -7.792 -32.917  1.00  0.00     0.044 A 
ATOM      8  C   UNL     1     -19.859 -10.184 -32.897  1.00  0.00     0.030 A 
ATOM      9  C   UNL     1     -20.002  -9.003 -33.611  1.00  0.00     0.078 A 
ATOM     10  N   UNL     1     -20.196  -9.072 -34.929  1.00  0.00    -0.213 NA
ATOM     11  N   UNL     1     -20.285  -6.715 -35.036  1.00  0.00    -0.195 NA
ATOM     12  C   UNL     1     -20.299  -7.922 -35.593  1.00  0.00     0.222 A 
BRANCH   4  13
ATOM     13  C   UNL     1     -19.298  -8.990 -29.348  1.00  0.00    -0.018 A 
ATOM     14  C   UNL     1     -18.869  -7.813 -28.702  1.00  0.00     0.020 A 
ATOM     15  C   UNL     1     -19.475 -10.156 -28.583  1.00  0.00     0.011 A 
ATOM     16  C   UNL     1     -18.626  -7.825 -27.317  1.00  0.00     0.020 A 
ATOM     17  C   UNL     1     -19.237 -10.190 -27.202  1.00  0.00     0.029 A 
ATOM     18  C   UNL     1     -18.814  -9.002 -26.605  1.00  0.00     0.065 A 
ATOM     19  C   UNL     1     -18.205  -6.888 -26.347  1.00  0.00     0.143 A 
ATOM     20  N   UNL     1     -18.502  -8.692 -25.307  1.00  0.00    -0.278 N 
ATOM     21  N   UNL     1     -18.125  -7.413 -25.122  1.00  0.00    -0.183 NA
ATOM     22  H   UNL     1     -18.527  -9.307 -24.501  1.00  0.00     0.190 HD
ENDBRANCH   4  13
BRANCH  12  23
ATOM     23  N   UNL     1     -20.476  -7.987 -36.959  1.00  0.00    -0.368 N 
ATOM     24  H   UNL     1     -19.586  -7.966 -37.433  1.00  0.00     0.159 HD
ATOM     25  H   UNL     1     -21.121  -8.730 -37.191  1.00  0.00     0.159 HD
ENDBRANCH  12  23
ENDBRANCH   1   3
BRANCH   1  26
ATOM     26  C   UNL     1     -21.164  -4.712 -32.395  1.00  0.00     0.040 A 
ATOM     27  C   UNL     1     -21.297  -4.709 -31.003  1.00  0.00     0.040 A 
ATOM     28  C   UNL     1     -22.205  -4.150 -33.158  1.00  0.00     0.026 A 
ATOM     29  C   UNL     1     -22.409  -4.114 -30.397  1.00  0.00     0.042 A 
ATOM     30  C   UNL     1     -23.309  -3.540 -32.551  1.00  0.00     0.003 A 
ATOM     31  C   UNL     1     -23.408  -3.512 -31.164  1.00  0.00     0.014 A 
BRANCH  29  32
ATOM     32  C   UNL     1     -22.504  -4.109 -28.924  1.00  0.00     0.254 C 
ATOM     33  N   UNL     1     -23.257  -5.103 -28.309  1.00  0.00    -0.333 N 
ATOM     34  C   UNL     1     -23.418  -5.054 -26.860  1.00  0.00     0.151 C 
ATOM     35  C   UNL     1     -23.777  -6.296 -28.983  1.00  0.00     0.151 C 
ATOM     36  C   UNL     1     -24.619  -5.871 -26.361  1.00  0.00     0.135 C 
ATOM     37  C   UNL     1     -23.940  -7.503 -28.042  1.00  0.00     0.135 C 
ATOM     38  O   UNL     1     -24.663  -7.225 -26.836  1.00  0.00    -0.372 OA
ATOM     39  O   UNL     1     -21.923  -3.221 -28.309  1.00  0.00    -0.269 OA
ATOM     40  C   UNL     1     -25.952  -5.197 -26.684  1.00  0.00     0.040 C 
ATOM     41  C   UNL     1     -22.606  -8.160 -27.690  1.00  0.00     0.040 C 
ENDBRANCH  29  32
ENDBRANCH   1  26
TORSDOF 5
ENDMDL
MODEL 11
REMARK VINA RESULT:    -8.716      2.431      5.087
REMARK INTER + INTRA:         -12.529
REMARK INTER:                 -10.392
REMARK INTRA:                  -2.137
REMARK UNBOUND:                -1.520
REMARK SMILES C[C@@H]1CN(C(=O)c2cccc(Nc3nc(N)nc4ccc(-c5ccc6[nH]ncc6c5)cc34)c2)C[C@@H](C)O1
REMARK SMILES IDX 12 1 13 3 21 4 31 5 20 6 32 7 19 8 18 9 17 10 14 11 15 12
REMARK SMILES IDX 22 13 30 14 23 15 29 16 24 17 25 18 28 19 26 20 27 21 16 23
REMARK SMILES IDX 11 26 33 27 10 28 7 29 9 30 8 31 5 32 4 33 34 34 3 35 35 36
REMARK SMILES IDX 2 37 37 38 6 39 36 40 1 41
REMARK H PARENT 12 2 26 22 16 24 16 25
ROOT
ATOM      1  N   UNL     1     -19.870  -9.408 -32.109  1.00  0.00    -0.340 N 
ATOM      2  H   UNL     1     -20.697  -9.571 -31.545  1.00  0.00     0.168 HD
ENDROOT
BRANCH   1   3
ATOM      3  C   UNL     1     -20.102  -8.274 -32.939  1.00  0.00     0.143 A 
ATOM      4  C   UNL     1     -20.628  -5.510 -30.407  1.00  0.00    -0.017 A 
ATOM      5  C   UNL     1     -20.409  -6.792 -30.931  1.00  0.00     0.023 A 
ATOM      6  C   UNL     1     -20.772  -4.458 -31.315  1.00  0.00     0.011 A 
ATOM      7  C   UNL     1     -20.332  -7.026 -32.332  1.00  0.00     0.044 A 
ATOM      8  C   UNL     1     -20.708  -4.690 -32.693  1.00  0.00     0.030 A 
ATOM      9  C   UNL     1     -20.497  -5.958 -33.217  1.00  0.00     0.078 A 
ATOM     10  N   UNL     1     -20.462  -6.103 -34.543  1.00  0.00    -0.213 NA
ATOM     11  N   UNL     1     -20.087  -8.419 -34.274  1.00  0.00    -0.195 NA
ATOM     12  C   UNL     1     -20.289  -7.335 -35.018  1.00  0.00     0.222 A 
BRANCH   4  13
ATOM     13  C   UNL     1     -20.712  -5.287 -28.954  1.00  0.00    -0.018 A 
ATOM     14  C   UNL     1     -19.573  -4.887 -28.224  1.00  0.00     0.020 A 
ATOM     15  C   UNL     1     -21.925  -5.474 -28.268  1.00  0.00     0.011 A 
ATOM     16  C   UNL     1     -19.669  -4.687 -26.835  1.00  0.00     0.020 A 
ATOM     17  C   UNL     1     -22.041  -5.280 -26.884  1.00  0.00     0.029 A 
ATOM     18  C   UNL     1     -20.889  -4.886 -26.203  1.00  0.00     0.065 A 
ATOM     19  C   UNL     1     -18.791  -4.302 -25.798  1.00  0.00     0.143 A 
ATOM     20  N   UNL     1     -20.658  -4.615 -24.880  1.00  0.00    -0.278 N 
ATOM     21  N   UNL     1     -19.389  -4.259 -24.605  1.00  0.00    -0.183 NA
ATOM     22  H   UNL     1     -21.323  -4.651 -24.116  1.00  0.00     0.190 HD
ENDBRANCH   4  13
BRANCH  12  23
ATOM     23  N   UNL     1     -20.275  -7.496 -36.387  1.00  0.00    -0.368 N 
ATOM     24  H   UNL     1     -21.210  -7.641 -36.736  1.00  0.00     0.159 HD
ATOM     25  H   UNL     1     -19.714  -6.772 -36.817  1.00  0.00     0.159 HD
ENDBRANCH  12  23
ENDBRANCH   1   3
BRANCH   1  26
ATOM     26  C   UNL     1     -18.696  -9.767 -31.407  1.00  0.00     0.040 A 
ATOM     27  C   UNL     1     -18.703 -10.216 -30.083  1.00  0.00     0.040 A 
ATOM     28  C   UNL     1     -17.450  -9.538 -32.020  1.00  0.00     0.026 A 
ATOM     29  C   UNL     1     -17.501 -10.477 -29.416  1.00  0.00     0.042 A 
ATOM     30  C   UNL     1     -16.249  -9.816 -31.358  1.00  0.00     0.003 A 
ATOM     31  C   UNL     1     -16.272 -10.298 -30.054  1.00  0.00     0.014 A 
BRANCH  29  32
ATOM     32  C   UNL     1     -17.547 -10.972 -28.025  1.00  0.00     0.254 C 
ATOM     33  N   UNL     1     -17.574 -10.039 -26.995  1.00  0.00    -0.333 N 
ATOM     34  C   UNL     1     -17.540 -10.525 -25.620  1.00  0.00     0.151 C 
ATOM     35  C   UNL     1     -17.797  -8.602 -27.174  1.00  0.00     0.151 C 
ATOM     36  C   UNL     1     -17.092  -9.452 -24.616  1.00  0.00     0.135 C 
ATOM     37  C   UNL     1     -18.453  -7.932 -25.953  1.00  0.00     0.135 C 
ATOM     38  O   UNL     1     -17.809  -8.212 -24.703  1.00  0.00    -0.372 OA
ATOM     39  O   UNL     1     -17.548 -12.185 -27.843  1.00  0.00    -0.269 OA
ATOM     40  C   UNL     1     -15.596  -9.158 -24.710  1.00  0.00     0.040 C 
ATOM     41  C   UNL     1     -19.942  -8.250 -25.836  1.00  0.00     0.040 C 
ENDBRANCH  29  32
ENDBRANCH   1  26
TORSDOF 5
ENDMDL
MODEL 12
REMARK VINA RESULT:    -8.663      4.471      9.091
REMARK INTER + INTRA:         -12.462
REMARK INTER:                 -10.937
REMARK INTRA:                  -1.525
REMARK UNBOUND:                -1.520
REMARK SMILES C[C@@H]1CN(C(=O)c2cccc(Nc3nc(N)nc4ccc(-c5ccc6[nH]ncc6c5)cc34)c2)C[C@@H](C)O1
REMARK SMILES IDX 12 1 13 3 21 4 31 5 20 6 32 7 19 8 18 9 17 10 14 11 15 12
REMARK SMILES IDX 22 13 30 14 23 15 29 16 24 17 25 18 28 19 26 20 27 21 16 23
REMARK SMILES IDX 11 26 33 27 10 28 7 29 9 30 8 31 5 32 4 33 34 34 3 35 35 36
REMARK SMILES IDX 2 37 37 38 6 39 36 40 1 41
REMARK H PARENT 12 2 26 22 16 24 16 25
ROOT
ATOM      1  N   UNL     1     -21.017  -9.244 -27.007  1.00  0.00    -0.340 N 
ATOM      2  H   UNL     1     -20.713  -9.559 -27.922  1.00  0.00     0.168 HD
ENDROOT
BRANCH   1   3
ATOM      3  C   UNL     1     -19.986  -8.447 -26.435  1.00  0.00     0.143 A 
ATOM      4  C   UNL     1     -20.557  -5.081 -28.070  1.00  0.00    -0.017 A 
ATOM      5  C   UNL     1     -20.711  -6.442 -27.766  1.00  0.00     0.023 A 
ATOM      6  C   UNL     1     -19.556  -4.379 -27.394  1.00  0.00     0.011 A 
ATOM      7  C   UNL     1     -19.889  -7.094 -26.807  1.00  0.00     0.044 A 
ATOM      8  C   UNL     1     -18.738  -5.024 -26.459  1.00  0.00     0.030 A 
ATOM      9  C   UNL     1     -18.883  -6.371 -26.159  1.00  0.00     0.078 A 
ATOM     10  N   UNL     1     -18.057  -6.920 -25.267  1.00  0.00    -0.213 NA
ATOM     11  N   UNL     1     -19.138  -8.999 -25.550  1.00  0.00    -0.195 NA
ATOM     12  C   UNL     1     -18.199  -8.221 -25.021  1.00  0.00     0.222 A 
BRANCH   4  13
ATOM     13  C   UNL     1     -21.414  -4.423 -29.070  1.00  0.00    -0.018 A 
ATOM     14  C   UNL     1     -21.348  -4.799 -30.427  1.00  0.00     0.020 A 
ATOM     15  C   UNL     1     -22.307  -3.406 -28.691  1.00  0.00     0.011 A 
ATOM     16  C   UNL     1     -22.167  -4.153 -31.371  1.00  0.00     0.020 A 
ATOM     17  C   UNL     1     -23.132  -2.750 -29.616  1.00  0.00     0.029 A 
ATOM     18  C   UNL     1     -23.032  -3.154 -30.948  1.00  0.00     0.065 A 
ATOM     19  C   UNL     1     -22.383  -4.243 -32.764  1.00  0.00     0.143 A 
ATOM     20  N   UNL     1     -23.679  -2.733 -32.080  1.00  0.00    -0.278 N 
ATOM     21  N   UNL     1     -23.302  -3.378 -33.201  1.00  0.00    -0.183 NA
ATOM     22  H   UNL     1     -24.389  -2.014 -32.157  1.00  0.00     0.190 HD
ENDBRANCH   4  13
BRANCH  12  23
ATOM     23  N   UNL     1     -17.333  -8.799 -24.118  1.00  0.00    -0.368 N 
ATOM     24  H   UNL     1     -17.391  -8.334 -23.225  1.00  0.00     0.159 HD
ATOM     25  H   UNL     1     -17.431  -9.805 -24.137  1.00  0.00     0.159 HD
ENDBRANCH  12  23
ENDBRANCH   1   3
BRANCH   1  26
ATOM     26  C   UNL     1     -22.416  -9.036 -26.980  1.00  0.00     0.040 A 
ATOM     27  C   UNL     1     -23.054  -8.239 -26.025  1.00  0.00     0.040 A 
ATOM     28  C   UNL     1     -23.222  -9.768 -27.872  1.00  0.00     0.026 A 
ATOM     29  C   UNL     1     -24.449  -8.139 -26.001  1.00  0.00     0.042 A 
ATOM     30  C   UNL     1     -24.616  -9.654 -27.859  1.00  0.00     0.003 A 
ATOM     31  C   UNL     1     -25.234  -8.828 -26.927  1.00  0.00     0.014 A 
BRANCH  29  32
ATOM     32  C   UNL     1     -25.087  -7.269 -24.992  1.00  0.00     0.254 C 
ATOM     33  N   UNL     1     -25.333  -5.943 -25.325  1.00  0.00    -0.333 N 
ATOM     34  C   UNL     1     -25.891  -5.064 -24.304  1.00  0.00     0.151 C 
ATOM     35  C   UNL     1     -25.228  -5.387 -26.677  1.00  0.00     0.151 C 
ATOM     36  C   UNL     1     -25.670  -3.574 -24.609  1.00  0.00     0.135 C 
ATOM     37  C   UNL     1     -26.164  -4.189 -26.917  1.00  0.00     0.135 C 
ATOM     38  O   UNL     1     -26.084  -3.162 -25.920  1.00  0.00    -0.372 OA
ATOM     39  O   UNL     1     -25.360  -7.756 -23.899  1.00  0.00    -0.269 OA
ATOM     40  C   UNL     1     -24.218  -3.148 -24.398  1.00  0.00     0.040 C 
ATOM     41  C   UNL     1     -27.622  -4.607 -27.095  1.00  0.00     0.040 C 
ENDBRANCH  29  32
ENDBRANCH   1  26
TORSDOF 5
ENDMDL
MODEL 13
REMARK VINA RESULT:    -8.646      4.063      6.777
REMARK INTER + INTRA:         -12.441
REMARK INTER:                 -11.404
REMARK INTRA:                  -1.037
REMARK UNBOUND:                -1.520
REMARK SMILES C[C@@H]1CN(C(=O)c2cccc(Nc3nc(N)nc4ccc(-c5ccc6[nH]ncc6c5)cc34)c2)C[C@@H](C)O1
REMARK SMILES IDX 12 1 13 3 21 4 31 5 20 6 32 7 19 8 18 9 17 10 14 11 15 12
REMARK SMILES IDX 22 13 30 14 23 15 29 16 24 17 25 18 28 19 26 20 27 21 16 23
REMARK SMILES IDX 11 26 33 27 10 28 7 29 9 30 8 31 5 32 4 33 34 34 3 35 35 36
REMARK SMILES IDX 2 37 37 38 6 39 36 40 1 41
REMARK H PARENT 12 2 26 22 16 24 16 25
ROOT
ATOM      1  N   UNL     1     -19.677  -3.976 -27.362  1.00  0.00    -0.340 N 
ATOM      2  H   UNL     1     -19.319  -3.047 -27.559  1.00  0.00     0.168 HD
ENDROOT
BRANCH   1   3
ATOM      3  C   UNL     1     -20.528  -4.370 -28.433  1.00  0.00     0.143 A 
ATOM      4  C   UNL     1     -23.917  -4.545 -26.754  1.00  0.00    -0.017 A 
ATOM      5  C   UNL     1     -22.533  -4.382 -26.915  1.00  0.00     0.023 A 
ATOM      6  C   UNL     1     -24.665  -4.864 -27.890  1.00  0.00     0.011 A 
ATOM      7  C   UNL     1     -21.904  -4.529 -28.182  1.00  0.00     0.044 A 
ATOM      8  C   UNL     1     -24.044  -5.021 -29.134  1.00  0.00     0.030 A 
ATOM      9  C   UNL     1     -22.675  -4.866 -29.298  1.00  0.00     0.078 A 
ATOM     10  N   UNL     1     -22.152  -5.046 -30.512  1.00  0.00    -0.213 NA
ATOM     11  N   UNL     1     -20.005  -4.571 -29.653  1.00  0.00    -0.195 NA
ATOM     12  C   UNL     1     -20.832  -4.920 -30.634  1.00  0.00     0.222 A 
BRANCH   4  13
ATOM     13  C   UNL     1     -24.551  -4.395 -25.434  1.00  0.00    -0.018 A 
ATOM     14  C   UNL     1     -25.757  -5.063 -25.139  1.00  0.00     0.020 A 
ATOM     15  C   UNL     1     -23.970  -3.578 -24.448  1.00  0.00     0.011 A 
ATOM     16  C   UNL     1     -26.355  -4.900 -23.876  1.00  0.00     0.020 A 
ATOM     17  C   UNL     1     -24.550  -3.403 -23.183  1.00  0.00     0.029 A 
ATOM     18  C   UNL     1     -25.743  -4.082 -22.936  1.00  0.00     0.065 A 
ATOM     19  C   UNL     1     -27.513  -5.382 -23.227  1.00  0.00     0.143 A 
ATOM     20  N   UNL     1     -26.553  -4.133 -21.832  1.00  0.00    -0.278 N 
ATOM     21  N   UNL     1     -27.640  -4.914 -21.982  1.00  0.00    -0.183 NA
ATOM     22  H   UNL     1     -26.421  -3.660 -20.945  1.00  0.00     0.190 HD
ENDBRANCH   4  13
BRANCH  12  23
ATOM     23  N   UNL     1     -20.283  -5.128 -31.881  1.00  0.00    -0.368 N 
ATOM     24  H   UNL     1     -19.613  -5.882 -31.852  1.00  0.00     0.159 HD
ATOM     25  H   UNL     1     -21.012  -5.167 -32.580  1.00  0.00     0.159 HD
ENDBRANCH  12  23
ENDBRANCH   1   3
BRANCH   1  26
ATOM     26  C   UNL     1     -18.727  -4.748 -26.654  1.00  0.00     0.040 A 
ATOM     27  C   UNL     1     -18.891  -6.111 -26.391  1.00  0.00     0.040 A 
ATOM     28  C   UNL     1     -17.626  -4.091 -26.072  1.00  0.00     0.026 A 
ATOM     29  C   UNL     1     -17.954  -6.801 -25.614  1.00  0.00     0.042 A 
ATOM     30  C   UNL     1     -16.680  -4.786 -25.310  1.00  0.00     0.003 A 
ATOM     31  C   UNL     1     -16.837  -6.149 -25.087  1.00  0.00     0.014 A 
BRANCH  29  32
ATOM     32  C   UNL     1     -18.148  -8.246 -25.375  1.00  0.00     0.254 C 
ATOM     33  N   UNL     1     -18.601  -9.033 -26.427  1.00  0.00    -0.333 N 
ATOM     34  C   UNL     1     -18.868 -10.444 -26.170  1.00  0.00     0.151 C 
ATOM     35  C   UNL     1     -18.681  -8.597 -27.823  1.00  0.00     0.151 C 
ATOM     36  C   UNL     1     -19.793 -11.080 -27.219  1.00  0.00     0.135 C 
ATOM     37  C   UNL     1     -18.531  -9.752 -28.830  1.00  0.00     0.135 C 
ATOM     38  O   UNL     1     -19.387 -10.875 -28.581  1.00  0.00    -0.372 OA
ATOM     39  O   UNL     1     -17.911  -8.683 -24.253  1.00  0.00    -0.269 OA
ATOM     40  C   UNL     1     -21.242 -10.622 -27.068  1.00  0.00     0.040 C 
ATOM     41  C   UNL     1     -17.088 -10.236 -28.960  1.00  0.00     0.040 C 
ENDBRANCH  29  32
ENDBRANCH   1  26
TORSDOF 5
ENDMDL
MODEL 14
REMARK VINA RESULT:    -8.629      1.716      6.456
REMARK INTER + INTRA:         -12.419
REMARK INTER:                 -11.053
REMARK INTRA:                  -1.366
REMARK UNBOUND:                -1.520
REMARK SMILES C[C@@H]1CN(C(=O)c2cccc(Nc3nc(N)nc4ccc(-c5ccc6[nH]ncc6c5)cc34)c2)C[C@@H](C)O1
REMARK SMILES IDX 12 1 13 3 21 4 31 5 20 6 32 7 19 8 18 9 17 10 14 11 15 12
REMARK SMILES IDX 22 13 30 14 23 15 29 16 24 17 25 18 28 19 26 20 27 21 16 23
REMARK SMILES IDX 11 26 33 27 10 28 7 29 9 30 8 31 5 32 4 33 34 34 3 35 35 36
REMARK SMILES IDX 2 37 37 38 6 39 36 40 1 41
REMARK H PARENT 12 2 26 22 16 24 16 25
ROOT
ATOM      1  N   UNL     1     -18.991  -8.941 -28.172  1.00  0.00    -0.340 N 
ATOM      2  H   UNL     1     -19.337  -9.734 -27.644  1.00  0.00     0.168 HD
ENDROOT
BRANCH   1   3
ATOM      3  C   UNL     1     -18.421  -8.005 -27.264  1.00  0.00     0.143 A 
ATOM      4  C   UNL     1     -20.189  -4.789 -28.193  1.00  0.00    -0.017 A 
ATOM      5  C   UNL     1     -19.798  -6.135 -28.229  1.00  0.00     0.023 A 
ATOM      6  C   UNL     1     -19.615  -3.976 -27.212  1.00  0.00     0.011 A 
ATOM      7  C   UNL     1     -18.856  -6.667 -27.306  1.00  0.00     0.044 A 
ATOM      8  C   UNL     1     -18.679  -4.497 -26.311  1.00  0.00     0.030 A 
ATOM      9  C   UNL     1     -18.285  -5.827 -26.346  1.00  0.00     0.078 A 
ATOM     10  N   UNL     1     -17.376  -6.248 -25.464  1.00  0.00    -0.213 NA
ATOM     11  N   UNL     1     -17.492  -8.418 -26.386  1.00  0.00    -0.195 NA
ATOM     12  C   UNL     1     -16.994  -7.521 -25.540  1.00  0.00     0.222 A 
BRANCH   4  13
ATOM     13  C   UNL     1     -21.161  -4.253 -29.161  1.00  0.00    -0.018 A 
ATOM     14  C   UNL     1     -21.128  -4.663 -30.510  1.00  0.00     0.020 A 
ATOM     15  C   UNL     1     -22.132  -3.321 -28.759  1.00  0.00     0.011 A 
ATOM     16  C   UNL     1     -22.058  -4.134 -31.422  1.00  0.00     0.020 A 
ATOM     17  C   UNL     1     -23.068  -2.781 -29.653  1.00  0.00     0.029 A 
ATOM     18  C   UNL     1     -22.998  -3.215 -30.977  1.00  0.00     0.065 A 
ATOM     19  C   UNL     1     -22.338  -4.289 -32.798  1.00  0.00     0.143 A 
ATOM     20  N   UNL     1     -23.745  -2.898 -32.082  1.00  0.00    -0.278 N 
ATOM     21  N   UNL     1     -23.363  -3.536 -33.205  1.00  0.00    -0.183 NA
ATOM     22  H   UNL     1     -24.528  -2.257 -32.137  1.00  0.00     0.190 HD
ENDBRANCH   4  13
BRANCH  12  23
ATOM     23  N   UNL     1     -16.039  -7.956 -24.646  1.00  0.00    -0.368 N 
ATOM     24  H   UNL     1     -15.300  -7.276 -24.559  1.00  0.00     0.159 HD
ATOM     25  H   UNL     1     -16.481  -8.289 -23.800  1.00  0.00     0.159 HD
ENDBRANCH  12  23
ENDBRANCH   1   3
BRANCH   1  26
ATOM     26  C   UNL     1     -18.520  -9.342 -29.444  1.00  0.00     0.040 A 
ATOM     27  C   UNL     1     -19.179 -10.281 -30.244  1.00  0.00     0.040 A 
ATOM     28  C   UNL     1     -17.262  -8.877 -29.872  1.00  0.00     0.026 A 
ATOM     29  C   UNL     1     -18.619 -10.697 -31.456  1.00  0.00     0.042 A 
ATOM     30  C   UNL     1     -16.711  -9.281 -31.093  1.00  0.00     0.003 A 
ATOM     31  C   UNL     1     -17.395 -10.187 -31.896  1.00  0.00     0.014 A 
BRANCH  29  32
ATOM     32  C   UNL     1     -19.354 -11.673 -32.286  1.00  0.00     0.254 C 
ATOM     33  N   UNL     1     -20.265 -11.192 -33.218  1.00  0.00    -0.333 N 
ATOM     34  C   UNL     1     -21.048 -12.157 -33.983  1.00  0.00     0.151 C 
ATOM     35  C   UNL     1     -20.393  -9.787 -33.615  1.00  0.00     0.151 C 
ATOM     36  C   UNL     1     -22.318 -11.547 -34.597  1.00  0.00     0.135 C 
ATOM     37  C   UNL     1     -20.912  -9.606 -35.053  1.00  0.00     0.135 C 
ATOM     38  O   UNL     1     -22.101 -10.347 -35.355  1.00  0.00    -0.372 OA
ATOM     39  O   UNL     1     -19.133 -12.867 -32.106  1.00  0.00    -0.269 OA
ATOM     40  C   UNL     1     -23.395 -11.274 -33.549  1.00  0.00     0.040 C 
ATOM     41  C   UNL     1     -19.847  -9.910 -36.106  1.00  0.00     0.040 C 
ENDBRANCH  29  32
ENDBRANCH   1  26
TORSDOF 5
ENDMDL
MODEL 15
REMARK VINA RESULT:    -8.569      3.720      8.284
REMARK INTER + INTRA:         -12.343
REMARK INTER:                 -10.650
REMARK INTRA:                  -1.693
REMARK UNBOUND:                -1.520
REMARK SMILES C[C@@H]1CN(C(=O)c2cccc(Nc3nc(N)nc4ccc(-c5ccc6[nH]ncc6c5)cc34)c2)C[C@@H](C)O1
REMARK SMILES IDX 12 1 13 3 21 4 31 5 20 6 32 7 19 8 18 9 17 10 14 11 15 12
REMARK SMILES IDX 22 13 30 14 23 15 29 16 24 17 25 18 28 19 26 20 27 21 16 23
REMARK SMILES IDX 11 26 33 27 10 28 7 29 9 30 8 31 5 32 4 33 34 34 3 35 35 36
REMARK SMILES IDX 2 37 37 38 6 39 36 40 1 41
REMARK H PARENT 12 2 26 22 16 24 16 25
ROOT
ATOM      1  N   UNL     1     -19.026  -9.125 -27.653  1.00  0.00    -0.340 N 
ATOM      2  H   UNL     1     -18.711  -9.044 -28.614  1.00  0.00     0.168 HD
ENDROOT
BRANCH   1   3
ATOM      3  C   UNL     1     -18.355  -8.142 -26.871  1.00  0.00     0.143 A 
ATOM      4  C   UNL     1     -19.989  -4.929 -28.026  1.00  0.00    -0.017 A 
ATOM      5  C   UNL     1     -19.676  -6.294 -27.947  1.00  0.00     0.023 A 
ATOM      6  C   UNL     1     -19.317  -4.063 -27.159  1.00  0.00     0.011 A 
ATOM      7  C   UNL     1     -18.716  -6.791 -27.023  1.00  0.00     0.044 A 
ATOM      8  C   UNL     1     -18.364  -4.551 -26.258  1.00  0.00     0.030 A 
ATOM      9  C   UNL     1     -18.047  -5.900 -26.181  1.00  0.00     0.078 A 
ATOM     10  N   UNL     1     -17.117  -6.288 -25.307  1.00  0.00    -0.213 NA
ATOM     11  N   UNL     1     -17.404  -8.526 -26.003  1.00  0.00    -0.195 NA
ATOM     12  C   UNL     1     -16.811  -7.584 -25.275  1.00  0.00     0.222 A 
BRANCH   4  13
ATOM     13  C   UNL     1     -20.981  -4.430 -28.992  1.00  0.00    -0.018 A 
ATOM     14  C   UNL     1     -20.893  -4.782 -30.355  1.00  0.00     0.020 A 
ATOM     15  C   UNL     1     -22.028  -3.590 -28.576  1.00  0.00     0.011 A 
ATOM     16  C   UNL     1     -21.844  -4.290 -31.266  1.00  0.00     0.020 A 
ATOM     17  C   UNL     1     -22.986  -3.087 -29.469  1.00  0.00     0.029 A 
ATOM     18  C   UNL     1     -22.859  -3.462 -30.807  1.00  0.00     0.065 A 
ATOM     19  C   UNL     1     -22.086  -4.411 -32.653  1.00  0.00     0.143 A 
ATOM     20  N   UNL     1     -23.607  -3.159 -31.914  1.00  0.00    -0.278 N 
ATOM     21  N   UNL     1     -23.157  -3.721 -33.052  1.00  0.00    -0.183 NA
ATOM     22  H   UNL     1     -24.436  -2.577 -31.961  1.00  0.00     0.190 HD
ENDBRANCH   4  13
BRANCH  12  23
ATOM     23  N   UNL     1     -15.835  -7.989 -24.391  1.00  0.00    -0.368 N 
ATOM     24  H   UNL     1     -15.041  -7.368 -24.432  1.00  0.00     0.159 HD
ATOM     25  H   UNL     1     -16.242  -8.180 -23.486  1.00  0.00     0.159 HD
ENDBRANCH  12  23
ENDBRANCH   1   3
BRANCH   1  26
ATOM     26  C   UNL     1     -20.379  -9.531 -27.594  1.00  0.00     0.040 A 
ATOM     27  C   UNL     1     -21.330  -8.913 -26.777  1.00  0.00     0.040 A 
ATOM     28  C   UNL     1     -20.762 -10.694 -28.289  1.00  0.00     0.026 A 
ATOM     29  C   UNL     1     -22.634  -9.415 -26.701  1.00  0.00     0.042 A 
ATOM     30  C   UNL     1     -22.071 -11.185 -28.226  1.00  0.00     0.003 A 
ATOM     31  C   UNL     1     -23.016 -10.538 -27.437  1.00  0.00     0.014 A 
BRANCH  29  32
ATOM     32  C   UNL     1     -23.618  -8.723 -25.844  1.00  0.00     0.254 C 
ATOM     33  N   UNL     1     -24.170  -7.533 -26.302  1.00  0.00    -0.333 N 
ATOM     34  C   UNL     1     -25.082  -6.809 -25.424  1.00  0.00     0.151 C 
ATOM     35  C   UNL     1     -24.037  -7.021 -27.669  1.00  0.00     0.151 C 
ATOM     36  C   UNL     1     -25.238  -5.330 -25.809  1.00  0.00     0.135 C 
ATOM     37  C   UNL     1     -25.223  -6.144 -28.108  1.00  0.00     0.135 C 
ATOM     38  O   UNL     1     -25.565  -5.100 -27.188  1.00  0.00    -0.372 OA
ATOM     39  O   UNL     1     -23.895  -9.226 -24.760  1.00  0.00    -0.269 OA
ATOM     40  C   UNL     1     -24.001  -4.505 -25.456  1.00  0.00     0.040 C 
ATOM     41  C   UNL     1     -26.473  -6.962 -28.430  1.00  0.00     0.040 C 
ENDBRANCH  29  32
ENDBRANCH   1  26
TORSDOF 5
ENDMDL
MODEL 16
REMARK VINA RESULT:    -8.523      6.894     10.192
REMARK INTER + INTRA:         -12.285
REMARK INTER:                 -11.015
REMARK INTRA:                  -1.270
REMARK UNBOUND:                -1.520
REMARK SMILES C[C@@H]1CN(C(=O)c2cccc(Nc3nc(N)nc4ccc(-c5ccc6[nH]ncc6c5)cc34)c2)C[C@@H](C)O1
REMARK SMILES IDX 12 1 13 3 21 4 31 5 20 6 32 7 19 8 18 9 17 10 14 11 15 12
REMARK SMILES IDX 22 13 30 14 23 15 29 16 24 17 25 18 28 19 26 20 27 21 16 23
REMARK SMILES IDX 11 26 33 27 10 28 7 29 9 30 8 31 5 32 4 33 34 34 3 35 35 36
REMARK SMILES IDX 2 37 37 38 6 39 36 40 1 41
REMARK H PARENT 12 2 26 22 16 24 16 25
ROOT
ATOM      1  N   UNL     1     -24.672  -4.210 -23.625  1.00  0.00    -0.340 N 
ATOM      2  H   UNL     1     -23.685  -4.062 -23.446  1.00  0.00     0.168 HD
ENDROOT
BRANCH   1   3
ATOM      3  C   UNL     1     -24.919  -3.998 -25.011  1.00  0.00     0.143 A 
ATOM      4  C   UNL     1     -21.564  -4.809 -26.567  1.00  0.00    -0.017 A 
ATOM      5  C   UNL     1     -22.545  -4.594 -25.588  1.00  0.00     0.023 A 
ATOM      6  C   UNL     1     -21.938  -4.641 -27.902  1.00  0.00     0.011 A 
ATOM      7  C   UNL     1     -23.874  -4.220 -25.928  1.00  0.00     0.044 A 
ATOM      8  C   UNL     1     -23.243  -4.261 -28.236  1.00  0.00     0.030 A 
ATOM      9  C   UNL     1     -24.216  -4.041 -27.271  1.00  0.00     0.078 A 
ATOM     10  N   UNL     1     -25.434  -3.667 -27.665  1.00  0.00    -0.213 NA
ATOM     11  N   UNL     1     -26.139  -3.604 -25.413  1.00  0.00    -0.195 NA
ATOM     12  C   UNL     1     -26.339  -3.434 -26.716  1.00  0.00     0.222 A 
BRANCH   4  13
ATOM     13  C   UNL     1     -20.191  -5.190 -26.197  1.00  0.00    -0.018 A 
ATOM     14  C   UNL     1     -19.889  -6.519 -25.836  1.00  0.00     0.020 A 
ATOM     15  C   UNL     1     -19.160  -4.235 -26.189  1.00  0.00     0.011 A 
ATOM     16  C   UNL     1     -18.574  -6.863 -25.477  1.00  0.00     0.020 A 
ATOM     17  C   UNL     1     -17.842  -4.558 -25.834  1.00  0.00     0.029 A 
ATOM     18  C   UNL     1     -17.590  -5.884 -25.484  1.00  0.00     0.065 A 
ATOM     19  C   UNL     1     -17.901  -8.038 -25.072  1.00  0.00     0.143 A 
ATOM     20  N   UNL     1     -16.441  -6.524 -25.096  1.00  0.00    -0.278 N 
ATOM     21  N   UNL     1     -16.603  -7.835 -24.837  1.00  0.00    -0.183 NA
ATOM     22  H   UNL     1     -15.516  -6.124 -24.991  1.00  0.00     0.190 HD
ENDBRANCH   4  13
BRANCH  12  23
ATOM     23  N   UNL     1     -27.593  -3.025 -27.115  1.00  0.00    -0.368 N 
ATOM     24  H   UNL     1     -28.307  -3.497 -26.581  1.00  0.00     0.159 HD
ATOM     25  H   UNL     1     -27.629  -2.016 -27.169  1.00  0.00     0.159 HD
ENDBRANCH  12  23
ENDBRANCH   1   3
BRANCH   1  26
ATOM     26  C   UNL     1     -25.200  -5.208 -22.773  1.00  0.00     0.040 A 
ATOM     27  C   UNL     1     -25.978  -6.275 -23.233  1.00  0.00     0.040 A 
ATOM     28  C   UNL     1     -25.049  -5.053 -21.383  1.00  0.00     0.026 A 
ATOM     29  C   UNL     1     -26.540  -7.184 -22.330  1.00  0.00     0.042 A 
ATOM     30  C   UNL     1     -25.596  -5.973 -20.481  1.00  0.00     0.003 A 
ATOM     31  C   UNL     1     -26.337  -7.049 -20.955  1.00  0.00     0.014 A 
BRANCH  29  32
ATOM     32  C   UNL     1     -27.338  -8.311 -22.853  1.00  0.00     0.254 C 
ATOM     33  N   UNL     1     -28.694  -8.109 -23.080  1.00  0.00    -0.333 N 
ATOM     34  C   UNL     1     -29.499  -9.243 -23.521  1.00  0.00     0.151 C 
ATOM     35  C   UNL     1     -29.359  -6.803 -23.067  1.00  0.00     0.151 C 
ATOM     36  C   UNL     1     -31.002  -9.043 -23.275  1.00  0.00     0.135 C 
ATOM     37  C   UNL     1     -30.599  -6.742 -23.977  1.00  0.00     0.135 C 
ATOM     38  O   UNL     1     -31.535  -7.810 -23.780  1.00  0.00    -0.372 OA
ATOM     39  O   UNL     1     -26.769  -9.379 -23.053  1.00  0.00    -0.269 OA
ATOM     40  C   UNL     1     -31.368  -9.164 -21.796  1.00  0.00     0.040 C 
ATOM     41  C   UNL     1     -30.238  -6.655 -25.459  1.00  0.00     0.040 C 
ENDBRANCH  29  32
ENDBRANCH   1  26
TORSDOF 5
ENDMDL
MODEL 17
REMARK VINA RESULT:    -8.450      2.435      6.246
REMARK INTER + INTRA:         -12.193
REMARK INTER:                 -10.455
REMARK INTRA:                  -1.739
REMARK UNBOUND:                -1.520
REMARK SMILES C[C@@H]1CN(C(=O)c2cccc(Nc3nc(N)nc4ccc(-c5ccc6[nH]ncc6c5)cc34)c2)C[C@@H](C)O1
REMARK SMILES IDX 12 1 13 3 21 4 31 5 20 6 32 7 19 8 18 9 17 10 14 11 15 12
REMARK SMILES IDX 22 13 30 14 23 15 29 16 24 17 25 18 28 19 26 20 27 21 16 23
REMARK SMILES IDX 11 26 33 27 10 28 7 29 9 30 8 31 5 32 4 33 34 34 3 35 35 36
REMARK SMILES IDX 2 37 37 38 6 39 36 40 1 41
REMARK H PARENT 12 2 26 22 16 24 16 25
ROOT
ATOM      1  N   UNL     1     -19.325  -4.920 -26.904  1.00  0.00    -0.340 N 
ATOM      2  H   UNL     1     -19.005  -4.473 -27.756  1.00  0.00     0.168 HD
ENDROOT
BRANCH   1   3
ATOM      3  C   UNL     1     -20.721  -4.679 -26.762  1.00  0.00     0.143 A 
ATOM      4  C   UNL     1     -21.969  -5.001 -30.321  1.00  0.00    -0.017 A 
ATOM      5  C   UNL     1     -21.083  -4.952 -29.235  1.00  0.00     0.023 A 
ATOM      6  C   UNL     1     -23.328  -4.821 -30.053  1.00  0.00     0.011 A 
ATOM      7  C   UNL     1     -21.538  -4.730 -27.906  1.00  0.00     0.044 A 
ATOM      8  C   UNL     1     -23.775  -4.590 -28.747  1.00  0.00     0.030 A 
ATOM      9  C   UNL     1     -22.901  -4.535 -27.670  1.00  0.00     0.078 A 
ATOM     10  N   UNL     1     -23.400  -4.297 -26.455  1.00  0.00    -0.213 NA
ATOM     11  N   UNL     1     -21.225  -4.420 -25.544  1.00  0.00    -0.195 NA
ATOM     12  C   UNL     1     -22.536  -4.219 -25.445  1.00  0.00     0.222 A 
BRANCH   4  13
ATOM     13  C   UNL     1     -21.480  -5.226 -31.691  1.00  0.00    -0.018 A 
ATOM     14  C   UNL     1     -20.707  -6.365 -31.998  1.00  0.00     0.020 A 
ATOM     15  C   UNL     1     -21.768  -4.307 -32.715  1.00  0.00     0.011 A 
ATOM     16  C   UNL     1     -20.240  -6.559 -33.310  1.00  0.00     0.020 A 
ATOM     17  C   UNL     1     -21.312  -4.483 -34.030  1.00  0.00     0.029 A 
ATOM     18  C   UNL     1     -20.551  -5.623 -34.287  1.00  0.00     0.065 A 
ATOM     19  C   UNL     1     -19.471  -7.533 -33.985  1.00  0.00     0.143 A 
ATOM     20  N   UNL     1     -19.965  -6.090 -35.434  1.00  0.00    -0.278 N 
ATOM     21  N   UNL     1     -19.298  -7.250 -35.279  1.00  0.00    -0.183 NA
ATOM     22  H   UNL     1     -19.983  -5.667 -36.355  1.00  0.00     0.190 HD
ENDBRANCH   4  13
BRANCH  12  23
ATOM     23  N   UNL     1     -23.042  -3.950 -24.191  1.00  0.00    -0.368 N 
ATOM     24  H   UNL     1     -22.656  -4.586 -23.510  1.00  0.00     0.159 HD
ATOM     25  H   UNL     1     -22.988  -2.959 -24.000  1.00  0.00     0.159 HD
ENDBRANCH  12  23
ENDBRANCH   1   3
BRANCH   1  26
ATOM     26  C   UNL     1     -18.600  -6.108 -26.650  1.00  0.00     0.040 A 
ATOM     27  C   UNL     1     -18.880  -7.326 -27.277  1.00  0.00     0.040 A 
ATOM     28  C   UNL     1     -17.638  -6.100 -25.622  1.00  0.00     0.026 A 
ATOM     29  C   UNL     1     -18.180  -8.483 -26.922  1.00  0.00     0.042 A 
ATOM     30  C   UNL     1     -16.926  -7.255 -25.279  1.00  0.00     0.003 A 
ATOM     31  C   UNL     1     -17.190  -8.451 -25.938  1.00  0.00     0.014 A 
BRANCH  29  32
ATOM     32  C   UNL     1     -18.487  -9.748 -27.621  1.00  0.00     0.254 C 
ATOM     33  N   UNL     1     -18.285  -9.807 -28.994  1.00  0.00    -0.333 N 
ATOM     34  C   UNL     1     -18.661 -11.028 -29.698  1.00  0.00     0.151 C 
ATOM     35  C   UNL     1     -17.571  -8.796 -29.779  1.00  0.00     0.151 C 
ATOM     36  C   UNL     1     -18.851 -10.817 -31.208  1.00  0.00     0.135 C 
ATOM     37  C   UNL     1     -16.896  -9.369 -31.038  1.00  0.00     0.135 C 
ATOM     38  O   UNL     1     -17.755 -10.165 -31.865  1.00  0.00    -0.372 OA
ATOM     39  O   UNL     1     -18.918 -10.686 -26.957  1.00  0.00    -0.269 OA
ATOM     40  C   UNL     1     -20.136 -10.055 -31.529  1.00  0.00     0.040 C 
ATOM     41  C   UNL     1     -15.628 -10.160 -30.719  1.00  0.00     0.040 C 
ENDBRANCH  29  32
ENDBRANCH   1  26
TORSDOF 5
ENDMDL
MODEL 18
REMARK VINA RESULT:    -8.444      2.276      6.155
REMARK INTER + INTRA:         -12.186
REMARK INTER:                 -10.685
REMARK INTRA:                  -1.501
REMARK UNBOUND:                -1.520
REMARK SMILES C[C@@H]1CN(C(=O)c2cccc(Nc3nc(N)nc4ccc(-c5ccc6[nH]ncc6c5)cc34)c2)C[C@@H](C)O1
REMARK SMILES IDX 12 1 13 3 21 4 31 5 20 6 32 7 19 8 18 9 17 10 14 11 15 12
REMARK SMILES IDX 22 13 30 14 23 15 29 16 24 17 25 18 28 19 26 20 27 21 16 23
REMARK SMILES IDX 11 26 33 27 10 28 7 29 9 30 8 31 5 32 4 33 34 34 3 35 35 36
REMARK SMILES IDX 2 37 37 38 6 39 36 40 1 41
REMARK H PARENT 12 2 26 22 16 24 16 25
ROOT
ATOM      1  N   UNL     1     -19.362  -5.487 -28.455  1.00  0.00    -0.340 N 
ATOM      2  H   UNL     1     -18.830  -5.240 -29.282  1.00  0.00     0.168 HD
ENDROOT
BRANCH   1   3
ATOM      3  C   UNL     1     -20.668  -4.932 -28.572  1.00  0.00     0.143 A 
ATOM      4  C   UNL     1     -21.208  -4.912 -32.319  1.00  0.00    -0.017 A 
ATOM      5  C   UNL     1     -20.573  -5.083 -31.080  1.00  0.00     0.023 A 
ATOM      6  C   UNL     1     -22.518  -4.426 -32.311  1.00  0.00     0.011 A 
ATOM      7  C   UNL     1     -21.227  -4.778 -29.855  1.00  0.00     0.044 A 
ATOM      8  C   UNL     1     -23.157  -4.115 -31.105  1.00  0.00     0.030 A 
ATOM      9  C   UNL     1     -22.530  -4.276 -29.877  1.00  0.00     0.078 A 
ATOM     10  N   UNL     1     -23.198  -3.945 -28.771  1.00  0.00    -0.213 NA
ATOM     11  N   UNL     1     -21.338  -4.579 -27.463  1.00  0.00    -0.195 NA
ATOM     12  C   UNL     1     -22.562  -4.081 -27.609  1.00  0.00     0.222 A 
BRANCH   4  13
ATOM     13  C   UNL     1     -20.514  -5.227 -33.579  1.00  0.00    -0.018 A 
ATOM     14  C   UNL     1     -20.748  -6.451 -34.238  1.00  0.00     0.020 A 
ATOM     15  C   UNL     1     -19.604  -4.316 -34.143  1.00  0.00     0.011 A 
ATOM     16  C   UNL     1     -20.069  -6.739 -35.436  1.00  0.00     0.020 A 
ATOM     17  C   UNL     1     -18.917  -4.585 -35.336  1.00  0.00     0.029 A 
ATOM     18  C   UNL     1     -19.179  -5.808 -35.953  1.00  0.00     0.065 A 
ATOM     19  C   UNL     1     -20.034  -7.811 -36.356  1.00  0.00     0.143 A 
ATOM     20  N   UNL     1     -18.693  -6.373 -37.103  1.00  0.00    -0.278 N 
ATOM     21  N   UNL     1     -19.195  -7.593 -37.371  1.00  0.00    -0.183 NA
ATOM     22  H   UNL     1     -18.020  -5.978 -37.750  1.00  0.00     0.190 HD
ENDBRANCH   4  13
BRANCH  12  23
ATOM     23  N   UNL     1     -23.238  -3.719 -26.464  1.00  0.00    -0.368 N 
ATOM     24  H   UNL     1     -23.083  -2.744 -26.254  1.00  0.00     0.159 HD
ATOM     25  H   UNL     1     -24.193  -4.049 -26.504  1.00  0.00     0.159 HD
ENDBRANCH  12  23
ENDBRANCH   1   3
BRANCH   1  26
ATOM     26  C   UNL     1     -18.980  -6.758 -27.966  1.00  0.00     0.040 A 
ATOM     27  C   UNL     1     -19.102  -7.935 -28.712  1.00  0.00     0.040 A 
ATOM     28  C   UNL     1     -18.583  -6.869 -26.620  1.00  0.00     0.026 A 
ATOM     29  C   UNL     1     -18.784  -9.172 -28.142  1.00  0.00     0.042 A 
ATOM     30  C   UNL     1     -18.248  -8.105 -26.056  1.00  0.00     0.003 A 
ATOM     31  C   UNL     1     -18.338  -9.262 -26.822  1.00  0.00     0.014 A 
BRANCH  29  32
ATOM     32  C   UNL     1     -18.903 -10.391 -28.967  1.00  0.00     0.254 C 
ATOM     33  N   UNL     1     -17.952 -10.614 -29.955  1.00  0.00    -0.333 N 
ATOM     34  C   UNL     1     -18.113 -11.777 -30.821  1.00  0.00     0.151 C 
ATOM     35  C   UNL     1     -16.703  -9.862 -30.098  1.00  0.00     0.151 C 
ATOM     36  C   UNL     1     -17.322 -11.661 -32.134  1.00  0.00     0.135 C 
ATOM     37  C   UNL     1     -15.571 -10.679 -30.748  1.00  0.00     0.135 C 
ATOM     38  O   UNL     1     -15.935 -11.331 -31.972  1.00  0.00    -0.372 OA
ATOM     39  O   UNL     1     -19.845 -11.147 -28.748  1.00  0.00    -0.269 OA
ATOM     40  C   UNL     1     -17.952 -10.661 -33.103  1.00  0.00     0.040 C 
ATOM     41  C   UNL     1     -14.962 -11.703 -29.792  1.00  0.00     0.040 C 
ENDBRANCH  29  32
ENDBRANCH   1  26
TORSDOF 5
ENDMDL
MODEL 19
REMARK VINA RESULT:    -8.308      3.900      8.380
REMARK INTER + INTRA:         -12.014
REMARK INTER:                 -10.061
REMARK INTRA:                  -1.954
REMARK UNBOUND:                -1.520
REMARK SMILES C[C@@H]1CN(C(=O)c2cccc(Nc3nc(N)nc4ccc(-c5ccc6[nH]ncc6c5)cc34)c2)C[C@@H](C)O1
REMARK SMILES IDX 12 1 13 3 21 4 31 5 20 6 32 7 19 8 18 9 17 10 14 11 15 12
REMARK SMILES IDX 22 13 30 14 23 15 29 16 24 17 25 18 28 19 26 20 27 21 16 23
REMARK SMILES IDX 11 26 33 27 10 28 7 29 9 30 8 31 5 32 4 33 34 34 3 35 35 36
REMARK SMILES IDX 2 37 37 38 6 39 36 40 1 41
REMARK H PARENT 12 2 26 22 16 24 16 25
ROOT
ATOM      1  N   UNL     1     -19.381  -9.023 -27.730  1.00  0.00    -0.340 N 
ATOM      2  H   UNL     1     -19.296  -8.794 -28.714  1.00  0.00     0.168 HD
ENDROOT
BRANCH   1   3
ATOM      3  C   UNL     1     -18.645  -8.066 -26.975  1.00  0.00     0.143 A 
ATOM      4  C   UNL     1     -20.142  -4.790 -28.140  1.00  0.00    -0.017 A 
ATOM      5  C   UNL     1     -19.896  -6.167 -28.049  1.00  0.00     0.023 A 
ATOM      6  C   UNL     1     -19.410  -3.947 -27.299  1.00  0.00     0.011 A 
ATOM      7  C   UNL     1     -18.942  -6.700 -27.138  1.00  0.00     0.044 A 
ATOM      8  C   UNL     1     -18.463  -4.471 -26.411  1.00  0.00     0.030 A 
ATOM      9  C   UNL     1     -18.212  -5.833 -26.322  1.00  0.00     0.078 A 
ATOM     10  N   UNL     1     -17.284  -6.256 -25.462  1.00  0.00    -0.213 NA
ATOM     11  N   UNL     1     -17.696  -8.485 -26.122  1.00  0.00    -0.195 NA
ATOM     12  C   UNL     1     -17.042  -7.565 -25.419  1.00  0.00     0.222 A 
BRANCH   4  13
ATOM     13  C   UNL     1     -21.129  -4.254 -29.092  1.00  0.00    -0.018 A 
ATOM     14  C   UNL     1     -21.112  -4.658 -30.443  1.00  0.00     0.020 A 
ATOM     15  C   UNL     1     -22.099  -3.327 -28.674  1.00  0.00     0.011 A 
ATOM     16  C   UNL     1     -22.056  -4.130 -31.342  1.00  0.00     0.020 A 
ATOM     17  C   UNL     1     -23.049  -2.789 -29.554  1.00  0.00     0.029 A 
ATOM     18  C   UNL     1     -22.994  -3.216 -30.881  1.00  0.00     0.065 A 
ATOM     19  C   UNL     1     -22.353  -4.281 -32.715  1.00  0.00     0.143 A 
ATOM     20  N   UNL     1     -23.756  -2.899 -31.975  1.00  0.00    -0.278 N 
ATOM     21  N   UNL     1     -23.385  -3.530 -33.105  1.00  0.00    -0.183 NA
ATOM     22  H   UNL     1     -24.543  -2.261 -32.017  1.00  0.00     0.190 HD
ENDBRANCH   4  13
BRANCH  12  23
ATOM     23  N   UNL     1     -16.068  -8.007 -24.550  1.00  0.00    -0.368 N 
ATOM     24  H   UNL     1     -16.314  -8.908 -24.171  1.00  0.00     0.159 HD
ATOM     25  H   UNL     1     -15.154  -7.901 -24.969  1.00  0.00     0.159 HD
ENDBRANCH  12  23
ENDBRANCH   1   3
BRANCH   1  26
ATOM     26  C   UNL     1     -20.644  -9.593 -27.447  1.00  0.00     0.040 A 
ATOM     27  C   UNL     1     -21.853  -9.007 -27.835  1.00  0.00     0.040 A 
ATOM     28  C   UNL     1     -20.697 -10.734 -26.625  1.00  0.00     0.026 A 
ATOM     29  C   UNL     1     -23.072  -9.578 -27.454  1.00  0.00     0.042 A 
ATOM     30  C   UNL     1     -21.917 -11.314 -26.259  1.00  0.00     0.003 A 
ATOM     31  C   UNL     1     -23.111 -10.741 -26.683  1.00  0.00     0.014 A 
BRANCH  29  32
ATOM     32  C   UNL     1     -24.329  -8.944 -27.900  1.00  0.00     0.254 C 
ATOM     33  N   UNL     1     -24.958  -8.052 -27.040  1.00  0.00    -0.333 N 
ATOM     34  C   UNL     1     -26.240  -7.486 -27.446  1.00  0.00     0.151 C 
ATOM     35  C   UNL     1     -24.361  -7.505 -25.819  1.00  0.00     0.151 C 
ATOM     36  C   UNL     1     -27.049  -6.927 -26.266  1.00  0.00     0.135 C 
ATOM     37  C   UNL     1     -24.900  -6.111 -25.450  1.00  0.00     0.135 C 
ATOM     38  O   UNL     1     -26.330  -6.014 -25.423  1.00  0.00    -0.372 OA
ATOM     39  O   UNL     1     -24.767  -9.243 -29.006  1.00  0.00    -0.269 OA
ATOM     40  C   UNL     1     -27.642  -8.032 -25.394  1.00  0.00     0.040 C 
ATOM     41  C   UNL     1     -24.336  -5.006 -26.341  1.00  0.00     0.040 C 
ENDBRANCH  29  32
ENDBRANCH   1  26
TORSDOF 5
ENDMDL
MODEL 20
REMARK VINA RESULT:    -8.253      3.898      9.230
REMARK INTER + INTRA:         -11.944
REMARK INTER:                 -10.457
REMARK INTRA:                  -1.487
REMARK UNBOUND:                -1.520
REMARK SMILES C[C@@H]1CN(C(=O)c2cccc(Nc3nc(N)nc4ccc(-c5ccc6[nH]ncc6c5)cc34)c2)C[C@@H](C)O1
REMARK SMILES IDX 12 1 13 3 21 4 31 5 20 6 32 7 19 8 18 9 17 10 14 11 15 12
REMARK SMILES IDX 22 13 30 14 23 15 29 16 24 17 25 18 28 19 26 20 27 21 16 23
REMARK SMILES IDX 11 26 33 27 10 28 7 29 9 30 8 31 5 32 4 33 34 34 3 35 35 36
REMARK SMILES IDX 2 37 37 38 6 39 36 40 1 41
REMARK H PARENT 12 2 26 22 16 24 16 25
ROOT
ATOM      1  N   UNL     1     -19.556  -6.197 -27.692  1.00  0.00    -0.340 N 
ATOM      2  H   UNL     1     -18.853  -5.888 -27.030  1.00  0.00     0.168 HD
ENDROOT
BRANCH   1   3
ATOM      3  C   UNL     1     -19.654  -7.615 -27.623  1.00  0.00     0.143 A 
ATOM      4  C   UNL     1     -19.924  -8.591 -31.271  1.00  0.00    -0.017 A 
ATOM      5  C   UNL     1     -19.833  -7.787 -30.125  1.00  0.00     0.023 A 
ATOM      6  C   UNL     1     -19.941  -9.976 -31.087  1.00  0.00     0.011 A 
ATOM      7  C   UNL     1     -19.759  -8.347 -28.820  1.00  0.00     0.044 A 
ATOM      8  C   UNL     1     -19.881 -10.527 -29.802  1.00  0.00     0.030 A 
ATOM      9  C   UNL     1     -19.797  -9.735 -28.665  1.00  0.00     0.078 A 
ATOM     10  N   UNL     1     -19.758 -10.332 -27.472  1.00  0.00    -0.213 NA
ATOM     11  N   UNL     1     -19.634  -8.221 -26.424  1.00  0.00    -0.195 NA
ATOM     12  C   UNL     1     -19.708  -9.548 -26.397  1.00  0.00     0.222 A 
BRANCH   4  13
ATOM     13  C   UNL     1     -20.005  -7.994 -32.614  1.00  0.00    -0.018 A 
ATOM     14  C   UNL     1     -20.217  -6.609 -32.770  1.00  0.00     0.020 A 
ATOM     15  C   UNL     1     -19.881  -8.794 -33.763  1.00  0.00     0.011 A 
ATOM     16  C   UNL     1     -20.302  -6.057 -34.061  1.00  0.00     0.020 A 
ATOM     17  C   UNL     1     -19.962  -8.263 -35.058  1.00  0.00     0.029 A 
ATOM     18  C   UNL     1     -20.173  -6.889 -35.165  1.00  0.00     0.065 A 
ATOM     19  C   UNL     1     -20.498  -4.769 -34.609  1.00  0.00     0.143 A 
ATOM     20  N   UNL     1     -20.298  -6.065 -36.253  1.00  0.00    -0.278 N 
ATOM     21  N   UNL     1     -20.499  -4.770 -35.944  1.00  0.00    -0.183 NA
ATOM     22  H   UNL     1     -20.254  -6.323 -37.233  1.00  0.00     0.190 HD
ENDBRANCH   4  13
BRANCH  12  23
ATOM     23  N   UNL     1     -19.691 -10.158 -25.162  1.00  0.00    -0.368 N 
ATOM     24  H   UNL     1     -20.332 -10.937 -25.142  1.00  0.00     0.159 HD
ATOM     25  H   UNL     1     -18.737 -10.320 -24.867  1.00  0.00     0.159 HD
ENDBRANCH  12  23
ENDBRANCH   1   3
BRANCH   1  26
ATOM     26  C   UNL     1     -20.592  -5.242 -27.817  1.00  0.00     0.040 A 
ATOM     27  C   UNL     1     -21.624  -5.104 -26.884  1.00  0.00     0.040 A 
ATOM     28  C   UNL     1     -20.666  -4.482 -29.000  1.00  0.00     0.026 A 
ATOM     29  C   UNL     1     -22.665  -4.197 -27.106  1.00  0.00     0.042 A 
ATOM     30  C   UNL     1     -21.699  -3.561 -29.213  1.00  0.00     0.003 A 
ATOM     31  C   UNL     1     -22.698  -3.409 -28.259  1.00  0.00     0.014 A 
BRANCH  29  32
ATOM     32  C   UNL     1     -23.727  -4.062 -26.088  1.00  0.00     0.254 C 
ATOM     33  N   UNL     1     -24.980  -4.592 -26.370  1.00  0.00    -0.333 N 
ATOM     34  C   UNL     1     -26.051  -4.391 -25.400  1.00  0.00     0.151 C 
ATOM     35  C   UNL     1     -25.279  -5.480 -27.497  1.00  0.00     0.151 C 
ATOM     36  C   UNL     1     -27.451  -4.575 -26.005  1.00  0.00     0.135 C 
ATOM     37  C   UNL     1     -26.452  -6.438 -27.221  1.00  0.00     0.135 C 
ATOM     38  O   UNL     1     -27.637  -5.802 -26.726  1.00  0.00    -0.372 OA
ATOM     39  O   UNL     1     -23.456  -3.478 -25.044  1.00  0.00    -0.269 OA
ATOM     40  C   UNL     1     -27.848  -3.411 -26.911  1.00  0.00     0.040 C 
ATOM     41  C   UNL     1     -26.069  -7.586 -26.288  1.00  0.00     0.040 C 
ENDBRANCH  29  32
ENDBRANCH   1  26
TORSDOF 5
ENDMDL
