REMARK SMILES C[C@@H]1CN(C(=O)c2cccc(Nc3nc(N)nc4ccc(-c5ccc6[nH]ncc6c5)cc34)c2)C[C@@H](C)O1
REMARK SMILES IDX 12 1 13 3 21 4 31 5 20 6 32 7 19 8 18 9 17 10 14 11 15 12
REMARK SMILES IDX 22 13 30 14 23 15 29 16 24 17 25 18 28 19 26 20 27 21 16 23
REMARK SMILES IDX 11 26 33 27 10 28 7 29 9 30 8 31 5 32 4 33 34 34 3 35 35 36
REMARK SMILES IDX 2 37 37 38 6 39 36 40 1 41
REMARK H PARENT 12 2 26 22 16 24 16 25
ROOT
ATOM      1  N   UNL     1       0.961  -0.881   0.955  1.00  0.00    -0.340 N 
ATOM      2  H   UNL     1       1.674  -0.803   1.672  1.00  0.00     0.168 HD
ENDROOT
BRANCH   1   3
ATOM      3  C   UNL     1       1.438  -1.750  -0.067  1.00  0.00     0.143 A 
ATOM      4  C   UNL     1       4.809  -0.245  -0.905  1.00  0.00    -0.017 A 
ATOM      5  C   UNL     1       3.552  -0.410  -0.305  1.00  0.00     0.023 A 
ATOM      6  C   UNL     1       5.205  -1.200  -1.845  1.00  0.00     0.011 A 
ATOM      7  C   UNL     1       2.704  -1.504  -0.630  1.00  0.00     0.044 A 
ATOM      8  C   UNL     1       4.365  -2.270  -2.174  1.00  0.00     0.030 A 
ATOM      9  C   UNL     1       3.118  -2.434  -1.587  1.00  0.00     0.078 A 
ATOM     10  N   UNL     1       2.367  -3.471  -1.962  1.00  0.00    -0.213 NA
ATOM     11  N   UNL     1       0.678  -2.785  -0.462  1.00  0.00    -0.195 NA
ATOM     12  C   UNL     1       1.163  -3.587  -1.405  1.00  0.00     0.222 A 
BRANCH   4  13
ATOM     13  C   UNL     1       5.672   0.897  -0.561  1.00  0.00    -0.018 A 
ATOM     14  C   UNL     1       6.029   1.146   0.780  1.00  0.00     0.020 A 
ATOM     15  C   UNL     1       6.149   1.762  -1.561  1.00  0.00     0.011 A 
ATOM     16  C   UNL     1       6.847   2.247   1.092  1.00  0.00     0.020 A 
ATOM     17  C   UNL     1       6.965   2.865  -1.271  1.00  0.00     0.029 A 
ATOM     18  C   UNL     1       7.292   3.073   0.069  1.00  0.00     0.065 A 
ATOM     19  C   UNL     1       7.401   2.806   2.265  1.00  0.00     0.143 A 
ATOM     20  N   UNL     1       8.053   4.032   0.685  1.00  0.00    -0.278 N 
ATOM     21  N   UNL     1       8.134   3.895   2.022  1.00  0.00    -0.183 NA
ATOM     22  H   UNL     1       8.545   4.805   0.251  1.00  0.00     0.190 HD
ENDBRANCH   4  13
BRANCH  12  23
ATOM     23  N   UNL     1       0.373  -4.643  -1.805  1.00  0.00    -0.368 N 
ATOM     24  H   UNL     1       0.942  -5.397  -2.159  1.00  0.00     0.159 HD
ATOM     25  H   UNL     1      -0.309  -4.858  -1.090  1.00  0.00     0.159 HD
ENDBRANCH  12  23
ENDBRANCH   1   3
BRANCH   1  26
ATOM     26  C   UNL     1      -0.335  -0.799   1.515  1.00  0.00     0.040 A 
ATOM     27  C   UNL     1      -1.493  -1.171   0.825  1.00  0.00     0.040 A 
ATOM     28  C   UNL     1      -0.485  -0.192   2.776  1.00  0.00     0.026 A 
ATOM     29  C   UNL     1      -2.753  -0.989   1.404  1.00  0.00     0.042 A 
ATOM     30  C   UNL     1      -1.745  -0.026   3.362  1.00  0.00     0.003 A 
ATOM     31  C   UNL     1      -2.885  -0.435   2.679  1.00  0.00     0.014 A 
BRANCH  29  32
ATOM     32  C   UNL     1      -3.953  -1.414   0.655  1.00  0.00     0.254 C 
ATOM     33  N   UNL     1      -4.870  -0.442   0.273  1.00  0.00    -0.333 N 
ATOM     34  C   UNL     1      -6.093  -0.869  -0.397  1.00  0.00     0.151 C 
ATOM     35  C   UNL     1      -4.636   1.003   0.345  1.00  0.00     0.151 C 
ATOM     36  C   UNL     1      -7.211   0.183  -0.333  1.00  0.00     0.135 C 
ATOM     37  C   UNL     1      -5.424   1.800  -0.710  1.00  0.00     0.135 C 
ATOM     38  O   UNL     1      -6.824   1.497  -0.762  1.00  0.00    -0.372 OA
ATOM     39  O   UNL     1      -4.091  -2.609   0.414  1.00  0.00    -0.269 OA
ATOM     40  C   UNL     1      -7.830   0.287   1.060  1.00  0.00     0.040 C 
ATOM     41  C   UNL     1      -4.828   1.672  -2.111  1.00  0.00     0.040 C 
ENDBRANCH  29  32
ENDBRANCH   1  26
TORSDOF 5
